
     Program PWSCF v.6.5 starts on 23Sep2020 at 17:33:48 

     This program is part of the open-source Quantum ESPRESSO suite
     for quantum simulation of materials; please cite
         "P. Giannozzi et al., J. Phys.:Condens. Matter 21 395502 (2009);
         "P. Giannozzi et al., J. Phys.:Condens. Matter 29 465901 (2017);
          URL http://www.quantum-espresso.org", 
     in publications or presentations arising from this work. More details at
     http://www.quantum-espresso.org/quote

     Serial version
     Waiting for input...
     Reading input from standard input

     Current dimensions of program PWSCF are:
     Max number of different atomic species (ntypx) = 10
     Max number of k-points (npk) =  40000
     Max angular momentum in pseudopotentials (lmaxx) =  3

     gamma-point specific algorithms are used
     Message from routine setup:
     using ibrav=0 with symmetry is DISCOURAGED, use correct ibrav instead

     G-vector sticks info
     --------------------
     sticks:   dense  smooth     PW     G-vecs:    dense   smooth      PW
     Sum         349     349     85                33263    33263    4163



     bravais-lattice index     =            0
     lattice parameter (alat)  =       6.0288  a.u.
     unit-cell volume          =    1189.6679 (a.u.)^3
     number of atoms/cell      =            3
     number of atomic types    =            2
     number of electrons       =        26.00
     number of Kohn-Sham states=           13
     kinetic-energy cutoff     =      35.0000  Ry
     charge density cutoff     =     140.0000  Ry
     convergence threshold     =      5.0E-03
     mixing beta               =       0.7000
     number of iterations used =            8  plain     mixing
     Exchange-correlation=  SLA  PW   PBX  PBC
                           (   1   4   3   4   0   0   0)
     nstep                     =           50


     celldm(1)=   6.028831  celldm(2)=   0.000000  celldm(3)=   0.000000
     celldm(4)=   0.000000  celldm(5)=   0.000000  celldm(6)=   0.000000

     crystal axes: (cart. coord. in units of alat)
               a(1) = (   1.000000   0.000000   0.000000 )  
               a(2) = (  -0.500000   0.866025   0.000000 )  
               a(3) = (   0.000000   0.000000   6.268964 )  

     reciprocal axes: (cart. coord. in units 2 pi/alat)
               b(1) = (  1.000000  0.577350 -0.000000 )  
               b(2) = (  0.000000  1.154701  0.000000 )  
               b(3) = (  0.000000 -0.000000  0.159516 )  


     PseudoPot. # 1 for Mo read from file:
     ./pseudos/Mo_ONCV_PBE-1.0.oncvpsp.upf
     MD5 check sum: 1b5d28e075c9ccadda658a603575cd1f
     Pseudo is Norm-conserving, Zval = 14.0
     Generated using ONCVPSP code by D. R. Hamann
     Using radial grid of 1526 points,  6 beta functions with: 
                l(1) =   0
                l(2) =   0
                l(3) =   1
                l(4) =   1
                l(5) =   2
                l(6) =   2

     PseudoPot. # 2 for S  read from file:
     ./pseudos/s_pbe_v1.4.uspp.F.UPF
     MD5 check sum: 88d86576ff6df21479756cfb9bdac1df
     Pseudo is Ultrasoft + core correction, Zval =  6.0
     Generated by new atomic code, or converted to UPF format
     Using radial grid of  907 points,  6 beta functions with: 
                l(1) =   0
                l(2) =   0
                l(3) =   1
                l(4) =   1
                l(5) =   2
                l(6) =   2
     Q(r) pseudized with  8 coefficients,  rinner =    1.300   1.300   1.300
                                                       1.300   1.300

     atomic species   valence    mass     pseudopotential
        Mo            14.00    95.95000     Mo( 1.00)
        S              6.00    32.06000     S ( 1.00)

      4 Sym. Ops. (no inversion) found



   Cartesian axes

     site n.     atom                  positions (alat units)
         1           Mo  tau(   1) = (  -0.0000050   0.5773532   3.1344818  )
         2           S   tau(   2) = (   0.5000050   0.2886722   2.6439981  )
         3           S   tau(   3) = (   0.5000050   0.2886722   3.6249655  )

     number of k points=     1
                       cart. coord. in units 2pi/alat
        k(    1) = (   0.0000000   0.0000000   0.0000000), wk =   2.0000000

     Dense  grid:    16632 G-vectors     FFT dimensions: (  24,  24, 144)

     Estimated max dynamical RAM per process >      69.91 MB

     Initial potential from superposition of free atoms

     starting charge   25.99894, renormalised to   26.00000

     negative rho (up, down):  3.060E-04 0.000E+00
     Starting wfcs are   18 randomized atomic wfcs

     total cpu time spent up to now is        1.3 secs

     Self-consistent Calculation

     iteration #  1     ecut=    35.00 Ry     beta= 0.70
     Davidson diagonalization with overlap
     ethr =  1.00E-02,  avg # of iterations =  2.0

     negative rho (up, down):  1.478E-04 0.000E+00

     total cpu time spent up to now is        1.4 secs

     total energy              =    -184.02946154 Ry
     Harris-Foulkes estimate   =    -185.16418919 Ry
     estimated scf accuracy    <       1.43885375 Ry

     iteration #  2     ecut=    35.00 Ry     beta= 0.70
     Davidson diagonalization with overlap
     ethr =  5.53E-03,  avg # of iterations =  6.0

     negative rho (up, down):  5.278E-06 0.000E+00

     total cpu time spent up to now is        1.6 secs

     total energy              =    -182.76898828 Ry
     Harris-Foulkes estimate   =    -187.96288294 Ry
     estimated scf accuracy    <      22.96424084 Ry

     iteration #  3     ecut=    35.00 Ry     beta= 0.70
     Davidson diagonalization with overlap
     ethr =  5.53E-03,  avg # of iterations =  5.0

     negative rho (up, down):  1.157E-05 0.000E+00

     total cpu time spent up to now is        1.8 secs

     total energy              =    -184.90809874 Ry
     Harris-Foulkes estimate   =    -185.08509237 Ry
     estimated scf accuracy    <       0.53552387 Ry

     iteration #  4     ecut=    35.00 Ry     beta= 0.70
     Davidson diagonalization with overlap
     ethr =  2.06E-03,  avg # of iterations =  3.0

     negative rho (up, down):  1.710E-05 0.000E+00

     total cpu time spent up to now is        1.9 secs

     total energy              =    -184.94518950 Ry
     Harris-Foulkes estimate   =    -184.97586818 Ry
     estimated scf accuracy    <       0.06237272 Ry

     iteration #  5     ecut=    35.00 Ry     beta= 0.70
     Davidson diagonalization with overlap
     ethr =  2.40E-04,  avg # of iterations =  5.0

     negative rho (up, down):  2.412E-05 0.000E+00

     total cpu time spent up to now is        2.1 secs

     total energy              =    -184.91352152 Ry
     Harris-Foulkes estimate   =    -185.04064243 Ry
     estimated scf accuracy    <       0.88932668 Ry

     iteration #  6     ecut=    35.00 Ry     beta= 0.70
     Davidson diagonalization with overlap
     ethr =  2.40E-04,  avg # of iterations =  5.0

     negative rho (up, down):  4.907E-05 0.000E+00

     total cpu time spent up to now is        2.2 secs

     total energy              =    -184.97185869 Ry
     Harris-Foulkes estimate   =    -184.97377394 Ry
     estimated scf accuracy    <       0.00654923 Ry

     iteration #  7     ecut=    35.00 Ry     beta= 0.70
     Davidson diagonalization with overlap
     ethr =  2.52E-05,  avg # of iterations =  2.0

     negative rho (up, down):  1.878E-04 0.000E+00

     total cpu time spent up to now is        2.4 secs

     End of self-consistent calculation

          k = 0.0000 0.0000 0.0000 (  2082 PWs)   bands (ev):

   -61.2969 -35.4047 -35.4046 -35.3755 -16.4610 -15.3498  -7.4536  -4.3604
    -4.3603  -3.9520  -3.4628  -3.4623  -1.5098

     highest occupied level (ev):    -1.5098

!    total energy              =    -184.97224674 Ry
     Harris-Foulkes estimate   =    -184.97268396 Ry
     estimated scf accuracy    <       0.00075600 Ry

     The total energy is the sum of the following terms:

     one-electron contribution =   -1112.26089949 Ry
     hartree contribution      =     556.22471588 Ry
     xc contribution           =     -32.73561539 Ry
     ewald contribution        =     403.79955226 Ry

     convergence has been achieved in   7 iterations

     negative rho (up, down):  1.878E-04 0.000E+00

     Forces acting on atoms (cartesian axes, Ry/au):

     atom    1 type  1   force =    -0.00007228    0.00004173    0.00000000
     atom    2 type  2   force =     0.00003614   -0.00002087    0.10833370
     atom    3 type  2   force =     0.00003614   -0.00002087   -0.10833370

     Total force =     0.153207     Total SCF correction =     0.029757
     SCF correction compared to forces is large: reduce conv_thr to get better values


     Computing stress (Cartesian axis) and pressure


     negative rho (up, down):  1.878E-04 0.000E+00
          total   stress  (Ry/bohr**3)                   (kbar)     P=       35.72
   0.00063033  -0.00000027   0.00000000           92.72       -0.04        0.00
  -0.00000027   0.00063001   0.00000000           -0.04       92.68        0.00
  -0.00000000  -0.00000000  -0.00053187           -0.00       -0.00      -78.24


     BFGS Geometry Optimization

     number of scf cycles    =   1
     number of bfgs steps    =   0

     enthalpy new            =    -184.9722467389 Ry

     new trust radius        =       0.1087054281 bohr
     new conv_thr            =       0.0050000000 Ry

     new unit-cell volume =   1211.12681 a.u.^3 (   179.47048 Ang^3 )
     density =      1.48104 g/cm^3

CELL_PARAMETERS (angstrom)
   3.240593901  -0.000021795  -0.000000000
  -1.620315825   2.806425744  -0.000000000
   0.000000000   0.000000000  19.734064045

ATOMIC_POSITIONS (angstrom)
Mo           -0.0000676393        1.8709750178        9.8670320225
S             1.6203262883        0.9354401474        8.3796043031
S             1.6203262883        0.9354401474       11.3544597420



     Writing output data file ./pwscf.save/
     NEW-OLD atomic charge density approx. for the potential

     negative rho (up, down):  2.182E-04 0.000E+00
     extrapolated charge   26.46065, renormalised to   26.00000

     total cpu time spent up to now is        5.1 secs

     Self-consistent Calculation

     iteration #  1     ecut=    35.00 Ry     beta= 0.70
     Davidson diagonalization with overlap
     ethr =  1.00E-06,  avg # of iterations = 14.0

     total cpu time spent up to now is        5.3 secs

     total energy              =     -64.45689563 Ry
     Harris-Foulkes estimate   =    -169.46940462 Ry
     estimated scf accuracy    <     129.84235486 Ry

     iteration #  2     ecut=    35.00 Ry     beta= 0.70
     Davidson diagonalization with overlap
     ethr =  1.00E-02,  avg # of iterations = 17.0

     total cpu time spent up to now is        5.6 secs

     total energy              =    -198.96344245 Ry
     Harris-Foulkes estimate   =    -273.49148159 Ry
     estimated scf accuracy    <     133.32308187 Ry

     iteration #  3     ecut=    35.00 Ry     beta= 0.70
     Davidson diagonalization with overlap
     ethr =  1.00E-02,  avg # of iterations = 11.0

     total cpu time spent up to now is        5.8 secs

     total energy              =    -198.99847100 Ry
     Harris-Foulkes estimate   =    -211.00274701 Ry
     estimated scf accuracy    <      32.21190313 Ry

     iteration #  4     ecut=    35.00 Ry     beta= 0.70
     Davidson diagonalization with overlap
     ethr =  1.00E-02,  avg # of iterations =  8.0

     total cpu time spent up to now is        6.0 secs

     total energy              =    -193.16879285 Ry
     Harris-Foulkes estimate   =    -200.99244519 Ry
     estimated scf accuracy    <      24.76153476 Ry

     iteration #  5     ecut=    35.00 Ry     beta= 0.70
     Davidson diagonalization with overlap
     ethr =  1.00E-02,  avg # of iterations =  3.0

     total cpu time spent up to now is        6.1 secs

     total energy              =    -189.34985566 Ry
     Harris-Foulkes estimate   =    -193.44770375 Ry
     estimated scf accuracy    <      13.52171421 Ry

     iteration #  6     ecut=    35.00 Ry     beta= 0.70
     Davidson diagonalization with overlap
     ethr =  1.00E-02,  avg # of iterations =  4.0

     total cpu time spent up to now is        6.3 secs

     total energy              =    -189.11374375 Ry
     Harris-Foulkes estimate   =    -189.65995762 Ry
     estimated scf accuracy    <       8.07738603 Ry

     iteration #  7     ecut=    35.00 Ry     beta= 0.70
     Davidson diagonalization with overlap
     ethr =  1.00E-02,  avg # of iterations =  1.0

     total cpu time spent up to now is        6.5 secs

     total energy              =    -186.03144979 Ry
     Harris-Foulkes estimate   =    -189.16219276 Ry
     estimated scf accuracy    <       7.24711306 Ry

     iteration #  8     ecut=    35.00 Ry     beta= 0.70
     Davidson diagonalization with overlap
     ethr =  1.00E-02,  avg # of iterations =  4.0

     total cpu time spent up to now is        6.6 secs

     total energy              =    -187.46977546 Ry
     Harris-Foulkes estimate   =    -187.76635640 Ry
     estimated scf accuracy    <      12.75505456 Ry

     iteration #  9     ecut=    35.00 Ry     beta= 0.70
     Davidson diagonalization with overlap
     ethr =  1.00E-02,  avg # of iterations =  1.0

     total cpu time spent up to now is        6.8 secs

     total energy              =    -187.19460851 Ry
     Harris-Foulkes estimate   =    -187.51236434 Ry
     estimated scf accuracy    <      11.00047474 Ry

     iteration # 10     ecut=    35.00 Ry     beta= 0.70
     Davidson diagonalization with overlap
     ethr =  1.00E-02,  avg # of iterations =  1.0

     negative rho (up, down):  1.626E-04 0.000E+00

     total cpu time spent up to now is        7.0 secs

     total energy              =    -183.78081695 Ry
     Harris-Foulkes estimate   =    -187.22464921 Ry
     estimated scf accuracy    <       9.96146753 Ry

     iteration # 11     ecut=    35.00 Ry     beta= 0.70
     Davidson diagonalization with overlap
     ethr =  1.00E-02,  avg # of iterations =  5.0

     negative rho (up, down):  2.347E-05 0.000E+00

     total cpu time spent up to now is        7.2 secs

     total energy              =    -184.97687082 Ry
     Harris-Foulkes estimate   =    -185.48562491 Ry
     estimated scf accuracy    <       3.91015515 Ry

     iteration # 12     ecut=    35.00 Ry     beta= 0.70
     Davidson diagonalization with overlap
     ethr =  1.00E-02,  avg # of iterations =  3.0

     total cpu time spent up to now is        7.3 secs

     total energy              =    -185.84547445 Ry
     Harris-Foulkes estimate   =    -185.39179156 Ry
     estimated scf accuracy    <       2.38468548 Ry

     iteration # 13     ecut=    35.00 Ry     beta= 0.70
     Davidson diagonalization with overlap
     ethr =  9.17E-03,  avg # of iterations =  3.0

     total cpu time spent up to now is        7.5 secs

     total energy              =    -186.93911125 Ry
     Harris-Foulkes estimate   =    -187.72815711 Ry
     estimated scf accuracy    <      37.31539800 Ry

     iteration # 14     ecut=    35.00 Ry     beta= 0.70
     Davidson diagonalization with overlap
     ethr =  9.17E-03,  avg # of iterations =  1.0

     negative rho (up, down):  1.978E-02 0.000E+00

     total cpu time spent up to now is        7.7 secs

     total energy              =    -184.83974452 Ry
     Harris-Foulkes estimate   =    -186.96606866 Ry
     estimated scf accuracy    <      34.54790420 Ry

     iteration # 15     ecut=    35.00 Ry     beta= 0.70
     Davidson diagonalization with overlap
     ethr =  9.17E-03,  avg # of iterations =  5.0

     negative rho (up, down):  1.971E-03 0.000E+00

     total cpu time spent up to now is        7.8 secs

     total energy              =    -182.43657056 Ry
     Harris-Foulkes estimate   =    -185.56199190 Ry
     estimated scf accuracy    <       7.10343321 Ry

     iteration # 16     ecut=    35.00 Ry     beta= 0.70
     Davidson diagonalization with overlap
     ethr =  9.17E-03,  avg # of iterations =  5.0

     total cpu time spent up to now is        8.0 secs

     total energy              =    -185.86282609 Ry
     Harris-Foulkes estimate   =    -189.07640433 Ry
     estimated scf accuracy    <      34.00818548 Ry

     iteration # 17     ecut=    35.00 Ry     beta= 0.70
     Davidson diagonalization with overlap
     ethr =  9.17E-03,  avg # of iterations =  3.0

     total cpu time spent up to now is        8.2 secs

     total energy              =    -183.11959207 Ry
     Harris-Foulkes estimate   =    -186.22991890 Ry
     estimated scf accuracy    <      16.92077622 Ry

     iteration # 18     ecut=    35.00 Ry     beta= 0.70
     Davidson diagonalization with overlap
     ethr =  9.17E-03,  avg # of iterations =  4.0

     negative rho (up, down):  3.204E-03 0.000E+00

     total cpu time spent up to now is        8.4 secs

     total energy              =    -184.92185242 Ry
     Harris-Foulkes estimate   =    -185.44090133 Ry
     estimated scf accuracy    <       2.03624773 Ry

     iteration # 19     ecut=    35.00 Ry     beta= 0.70
     Davidson diagonalization with overlap
     ethr =  7.83E-03,  avg # of iterations =  2.0

     negative rho (up, down):  1.015E-03 0.000E+00

     total cpu time spent up to now is        8.6 secs

     total energy              =    -185.07179039 Ry
     Harris-Foulkes estimate   =    -185.08155610 Ry
     estimated scf accuracy    <       0.28096654 Ry

     iteration # 20     ecut=    35.00 Ry     beta= 0.70
     Davidson diagonalization with overlap
     ethr =  1.08E-03,  avg # of iterations =  4.0

     total cpu time spent up to now is        8.7 secs

     total energy              =    -185.01820477 Ry
     Harris-Foulkes estimate   =    -185.11370544 Ry
     estimated scf accuracy    <       0.24247932 Ry

     iteration # 21     ecut=    35.00 Ry     beta= 0.70
     Davidson diagonalization with overlap
     ethr =  9.33E-04,  avg # of iterations =  2.0

     negative rho (up, down):  2.458E-08 0.000E+00

     total cpu time spent up to now is        8.9 secs

     total energy              =    -185.03687668 Ry
     Harris-Foulkes estimate   =    -185.04291821 Ry
     estimated scf accuracy    <       0.07604962 Ry

     iteration # 22     ecut=    35.00 Ry     beta= 0.70
     Davidson diagonalization with overlap
     ethr =  2.92E-04,  avg # of iterations =  3.0

     negative rho (up, down):  3.014E-05 0.000E+00

     total cpu time spent up to now is        9.1 secs

     total energy              =    -185.01518440 Ry
     Harris-Foulkes estimate   =    -185.04542958 Ry
     estimated scf accuracy    <       0.13839318 Ry

     iteration # 23     ecut=    35.00 Ry     beta= 0.70
     Davidson diagonalization with overlap
     ethr =  2.92E-04,  avg # of iterations =  4.0

     negative rho (up, down):  7.102E-03 0.000E+00

     total cpu time spent up to now is        9.2 secs

     total energy              =    -185.01904078 Ry
     Harris-Foulkes estimate   =    -185.02931703 Ry
     estimated scf accuracy    <       0.03606547 Ry

     iteration # 24     ecut=    35.00 Ry     beta= 0.70
     Davidson diagonalization with overlap
     ethr =  1.39E-04,  avg # of iterations =  4.0

     negative rho (up, down):  2.044E-03 0.000E+00

     total cpu time spent up to now is        9.4 secs

     total energy              =    -185.01520576 Ry
     Harris-Foulkes estimate   =    -185.03385025 Ry
     estimated scf accuracy    <       0.14645124 Ry

     iteration # 25     ecut=    35.00 Ry     beta= 0.70
     Davidson diagonalization with overlap
     ethr =  1.39E-04,  avg # of iterations =  3.0

     negative rho (up, down):  1.124E-04 0.000E+00

     total cpu time spent up to now is        9.6 secs

     total energy              =    -185.01692067 Ry
     Harris-Foulkes estimate   =    -185.02154807 Ry
     estimated scf accuracy    <       0.02326944 Ry

     iteration # 26     ecut=    35.00 Ry     beta= 0.70
     Davidson diagonalization with overlap
     ethr =  8.95E-05,  avg # of iterations =  3.0

     negative rho (up, down):  1.834E-04 0.000E+00

     total cpu time spent up to now is        9.7 secs

     End of self-consistent calculation

          k = 0.0000 0.0000 0.0000 (  2082 PWs)   bands (ev):

   -61.3127 -35.5033 -35.4963 -35.3129 -16.3988 -15.0633  -7.4593  -4.7885
    -4.7845  -3.7220  -3.7173  -3.5025  -1.0541

     highest occupied level (ev):    -1.0541

!    total energy              =    -185.01933363 Ry
     Harris-Foulkes estimate   =    -185.01968771 Ry
     estimated scf accuracy    <       0.00062089 Ry

     The total energy is the sum of the following terms:

     one-electron contribution =   -1079.16976013 Ry
     hartree contribution      =     539.22279623 Ry
     xc contribution           =     -32.76670221 Ry
     ewald contribution        =     387.69433248 Ry

     convergence has been achieved in  26 iterations

     negative rho (up, down):  1.834E-04 0.000E+00

     Forces acting on atoms (cartesian axes, Ry/au):

     atom    1 type  1   force =    -0.00044254    0.00025550   -0.00000000
     atom    2 type  2   force =     0.00022127   -0.00012775    0.05927645
     atom    3 type  2   force =     0.00022127   -0.00012775   -0.05927645

     Total force =     0.083832     Total SCF correction =     0.067274
     SCF correction compared to forces is large: reduce conv_thr to get better values


     Computing stress (Cartesian axis) and pressure


     negative rho (up, down):  1.834E-04 0.000E+00
          total   stress  (Ry/bohr**3)                   (kbar)     P=       32.82
   0.00050210  -0.00000744   0.00000000           73.86       -1.09        0.00
  -0.00000744   0.00049352   0.00000000           -1.09       72.60        0.00
  -0.00000000  -0.00000000  -0.00032636           -0.00       -0.00      -48.01


     number of scf cycles    =   2
     number of bfgs steps    =   1

     enthalpy old            =    -184.9722467389 Ry
     enthalpy new            =    -185.0193336292 Ry

     CASE: enthalpy_new < enthalpy_old

     new trust radius        =       0.1619698088 bohr
     new conv_thr            =       0.0029638225 Ry

     new unit-cell volume =   1247.10089 a.u.^3 (   184.80128 Ang^3 )
     density =      1.43832 g/cm^3

CELL_PARAMETERS (angstrom)
   3.315997265  -0.001085818  -0.000000000
  -1.658938978   2.871194962  -0.000000000
   0.000000000   0.000000000  19.413789216

ATOMIC_POSITIONS (angstrom)
Mo           -0.0011283331        1.9140575395        9.7068946081
S             1.6579441936        0.9561915695        8.3013493738
S             1.6579441936        0.9561915695       11.1124398424



     Writing output data file ./pwscf.save/
     NEW-OLD atomic charge density approx. for the potential

     negative rho (up, down):  2.572E-04 0.000E+00
     extrapolated charge   26.74997, renormalised to   26.00000

     total cpu time spent up to now is       12.5 secs

     Self-consistent Calculation

     iteration #  1     ecut=    35.00 Ry     beta= 0.70
     Davidson diagonalization with overlap
     ethr =  1.00E-06,  avg # of iterations = 15.0

     total cpu time spent up to now is       12.8 secs

     total energy              =      31.78942751 Ry
     Harris-Foulkes estimate   =    -164.82581546 Ry
     estimated scf accuracy    <     233.02042407 Ry

     iteration #  2     ecut=    35.00 Ry     beta= 0.70
     Davidson diagonalization with overlap
     c_bands:  2 eigenvalues not converged
     ethr =  1.00E-02,  avg # of iterations = 20.0

     total cpu time spent up to now is       13.1 secs

     total energy              =    -218.20900811 Ry
     Harris-Foulkes estimate   =    -330.93558992 Ry
     estimated scf accuracy    <     192.07463954 Ry

     iteration #  3     ecut=    35.00 Ry     beta= 0.70
     Davidson diagonalization with overlap
     ethr =  1.00E-02,  avg # of iterations = 11.0

     total cpu time spent up to now is       13.3 secs

     total energy              =    -210.33394160 Ry
     Harris-Foulkes estimate   =    -229.47338577 Ry
     estimated scf accuracy    <      54.23753088 Ry

     iteration #  4     ecut=    35.00 Ry     beta= 0.70
     Davidson diagonalization with overlap
     ethr =  1.00E-02,  avg # of iterations =  7.0

     total cpu time spent up to now is       13.5 secs

     total energy              =    -198.91115493 Ry
     Harris-Foulkes estimate   =    -211.94482062 Ry
     estimated scf accuracy    <      34.14852260 Ry

     iteration #  5     ecut=    35.00 Ry     beta= 0.70
     Davidson diagonalization with overlap
     ethr =  1.00E-02,  avg # of iterations =  7.0

     total cpu time spent up to now is       13.8 secs

     total energy              =    -196.74769225 Ry
     Harris-Foulkes estimate   =    -199.33890413 Ry
     estimated scf accuracy    <      18.01984743 Ry

     iteration #  6     ecut=    35.00 Ry     beta= 0.70
     Davidson diagonalization with overlap
     ethr =  1.00E-02,  avg # of iterations =  1.0

     total cpu time spent up to now is       14.0 secs

     total energy              =    -189.99027511 Ry
     Harris-Foulkes estimate   =    -196.80343566 Ry
     estimated scf accuracy    <      14.98164650 Ry

     iteration #  7     ecut=    35.00 Ry     beta= 0.70
     Davidson diagonalization with overlap
     ethr =  1.00E-02,  avg # of iterations =  6.0

     total cpu time spent up to now is       14.2 secs

     total energy              =    -191.78459898 Ry
     Harris-Foulkes estimate   =    -191.20891991 Ry
     estimated scf accuracy    <      14.83597875 Ry

     iteration #  8     ecut=    35.00 Ry     beta= 0.70
     Davidson diagonalization with overlap
     ethr =  1.00E-02,  avg # of iterations =  1.0

     total cpu time spent up to now is       14.4 secs

     total energy              =    -191.75453985 Ry
     Harris-Foulkes estimate   =    -191.81196308 Ry
     estimated scf accuracy    <      15.07400156 Ry

     iteration #  9     ecut=    35.00 Ry     beta= 0.70
     Davidson diagonalization with overlap
     ethr =  1.00E-02,  avg # of iterations =  1.0

     total cpu time spent up to now is       14.5 secs

     total energy              =    -191.68317713 Ry
     Harris-Foulkes estimate   =    -191.77903633 Ry
     estimated scf accuracy    <      15.82245269 Ry

     iteration # 10     ecut=    35.00 Ry     beta= 0.70
     Davidson diagonalization with overlap
     ethr =  1.00E-02,  avg # of iterations =  1.0

     negative rho (up, down):  7.518E-01 0.000E+00

     total cpu time spent up to now is       14.7 secs

     total energy              =    -213.53541826 Ry
     Harris-Foulkes estimate   =    -191.69171060 Ry
     estimated scf accuracy    <      15.77326964 Ry

     iteration # 11     ecut=    35.00 Ry     beta= 0.70
     Davidson diagonalization with overlap
     ethr =  1.00E-02,  avg # of iterations = 10.0

     negative rho (up, down):  1.319E+00 0.000E+00

     total cpu time spent up to now is       14.9 secs

     total energy              =    -313.86233796 Ry
     Harris-Foulkes estimate   =    -282.04018925 Ry
     estimated scf accuracy    <     558.16905860 Ry

     iteration # 12     ecut=    35.00 Ry     beta= 0.70
     Davidson diagonalization with overlap
     ethr =  1.00E-02,  avg # of iterations =  3.0

     negative rho (up, down):  8.037E-01 0.000E+00

     total cpu time spent up to now is       15.1 secs

     total energy              =    -286.36889356 Ry
     Harris-Foulkes estimate   =    -314.35398836 Ry
     estimated scf accuracy    <     606.57386538 Ry

     iteration # 13     ecut=    35.00 Ry     beta= 0.70
     Davidson diagonalization with overlap
     ethr =  1.00E-02,  avg # of iterations =  3.0

     negative rho (up, down):  1.010E+00 0.000E+00

     total cpu time spent up to now is       15.3 secs

     total energy              =    -295.10878827 Ry
     Harris-Foulkes estimate   =    -286.73347276 Ry
     estimated scf accuracy    <     564.47543360 Ry

     iteration # 14     ecut=    35.00 Ry     beta= 0.70
     Davidson diagonalization with overlap
     ethr =  1.00E-02,  avg # of iterations =  1.0

     negative rho (up, down):  2.899E+00 0.000E+00

     total cpu time spent up to now is       15.4 secs

     total energy              =    -360.78699182 Ry
     Harris-Foulkes estimate   =    -295.14062244 Ry
     estimated scf accuracy    <     572.55349710 Ry

     iteration # 15     ecut=    35.00 Ry     beta= 0.70
     Davidson diagonalization with overlap
     ethr =  1.00E-02,  avg # of iterations =  7.0

     negative rho (up, down):  1.689E+00 0.000E+00

     total cpu time spent up to now is       15.6 secs

     total energy              =    -115.10971752 Ry
     Harris-Foulkes estimate   =    -363.39514918 Ry
     estimated scf accuracy    <     712.77978947 Ry

     iteration # 16     ecut=    35.00 Ry     beta= 0.70
     Davidson diagonalization with overlap
     ethr =  1.00E-02,  avg # of iterations = 12.0

     negative rho (up, down):  5.622E-01 0.000E+00

     total cpu time spent up to now is       15.9 secs

     total energy              =    -169.89491379 Ry
     Harris-Foulkes estimate   =    -228.28154949 Ry
     estimated scf accuracy    <     342.28915693 Ry

     iteration # 17     ecut=    35.00 Ry     beta= 0.70
     Davidson diagonalization with overlap
     ethr =  1.00E-02,  avg # of iterations =  8.0

     negative rho (up, down):  1.528E-01 0.000E+00

     total cpu time spent up to now is       16.1 secs

     total energy              =    -179.51531724 Ry
     Harris-Foulkes estimate   =    -188.72980377 Ry
     estimated scf accuracy    <      27.76786701 Ry

     iteration # 18     ecut=    35.00 Ry     beta= 0.70
     Davidson diagonalization with overlap
     ethr =  1.00E-02,  avg # of iterations =  5.0

     negative rho (up, down):  1.956E-01 0.000E+00

     total cpu time spent up to now is       16.3 secs

     total energy              =    -183.31869387 Ry
     Harris-Foulkes estimate   =    -188.79111676 Ry
     estimated scf accuracy    <      32.05750211 Ry

     iteration # 19     ecut=    35.00 Ry     beta= 0.70
     Davidson diagonalization with overlap
     ethr =  1.00E-02,  avg # of iterations =  5.0

     negative rho (up, down):  9.853E-02 0.000E+00

     total cpu time spent up to now is       16.5 secs

     total energy              =    -185.61389163 Ry
     Harris-Foulkes estimate   =    -185.87139101 Ry
     estimated scf accuracy    <       1.85370844 Ry

     iteration # 20     ecut=    35.00 Ry     beta= 0.70
     Davidson diagonalization with overlap
     ethr =  7.13E-03,  avg # of iterations =  1.0

     negative rho (up, down):  3.507E-03 0.000E+00

     total cpu time spent up to now is       16.7 secs

     total energy              =    -185.52761410 Ry
     Harris-Foulkes estimate   =    -185.69275404 Ry
     estimated scf accuracy    <       1.72920000 Ry

     iteration # 21     ecut=    35.00 Ry     beta= 0.70
     Davidson diagonalization with overlap
     ethr =  6.65E-03,  avg # of iterations =  1.0

     negative rho (up, down):  2.051E-02 0.000E+00

     total cpu time spent up to now is       16.9 secs

     total energy              =    -185.29073825 Ry
     Harris-Foulkes estimate   =    -185.57816137 Ry
     estimated scf accuracy    <       1.69301168 Ry

     iteration # 22     ecut=    35.00 Ry     beta= 0.70
     Davidson diagonalization with overlap
     ethr =  6.51E-03,  avg # of iterations =  1.0

     negative rho (up, down):  3.422E-03 0.000E+00

     total cpu time spent up to now is       17.1 secs

     total energy              =    -185.12874679 Ry
     Harris-Foulkes estimate   =    -185.33062864 Ry
     estimated scf accuracy    <       1.28068237 Ry

     iteration # 23     ecut=    35.00 Ry     beta= 0.70
     Davidson diagonalization with overlap
     ethr =  4.93E-03,  avg # of iterations =  3.0

     negative rho (up, down):  2.908E-03 0.000E+00

     total cpu time spent up to now is       17.2 secs

     total energy              =    -185.21843039 Ry
     Harris-Foulkes estimate   =    -185.33213105 Ry
     estimated scf accuracy    <       2.17647643 Ry

     iteration # 24     ecut=    35.00 Ry     beta= 0.70
     Davidson diagonalization with overlap
     ethr =  4.93E-03,  avg # of iterations =  1.0

     negative rho (up, down):  5.976E-03 0.000E+00

     total cpu time spent up to now is       17.4 secs

     total energy              =    -184.77480688 Ry
     Harris-Foulkes estimate   =    -185.23129912 Ry
     estimated scf accuracy    <       1.71706937 Ry

     iteration # 25     ecut=    35.00 Ry     beta= 0.70
     Davidson diagonalization with overlap
     ethr =  4.93E-03,  avg # of iterations =  3.0

     negative rho (up, down):  2.011E-02 0.000E+00

     total cpu time spent up to now is       17.6 secs

     total energy              =    -185.07949988 Ry
     Harris-Foulkes estimate   =    -185.12506731 Ry
     estimated scf accuracy    <       0.49645331 Ry

     iteration # 26     ecut=    35.00 Ry     beta= 0.70
     Davidson diagonalization with overlap
     ethr =  1.91E-03,  avg # of iterations =  2.0

     negative rho (up, down):  7.923E-04 0.000E+00

     total cpu time spent up to now is       17.7 secs

     total energy              =    -185.01626530 Ry
     Harris-Foulkes estimate   =    -185.11037206 Ry
     estimated scf accuracy    <       0.50193733 Ry

     iteration # 27     ecut=    35.00 Ry     beta= 0.70
     Davidson diagonalization with overlap
     ethr =  1.91E-03,  avg # of iterations =  2.0

     negative rho (up, down):  9.693E-06 0.000E+00

     total cpu time spent up to now is       17.9 secs

     total energy              =    -185.04120008 Ry
     Harris-Foulkes estimate   =    -185.04881402 Ry
     estimated scf accuracy    <       0.07174356 Ry

     iteration # 28     ecut=    35.00 Ry     beta= 0.70
     Davidson diagonalization with overlap
     ethr =  2.76E-04,  avg # of iterations =  4.0

     negative rho (up, down):  1.872E-04 0.000E+00

     total cpu time spent up to now is       18.1 secs

     total energy              =    -185.05323903 Ry
     Harris-Foulkes estimate   =    -185.05489239 Ry
     estimated scf accuracy    <       0.00824276 Ry

     iteration # 29     ecut=    35.00 Ry     beta= 0.70
     Davidson diagonalization with overlap
     ethr =  3.17E-05,  avg # of iterations =  3.0

     negative rho (up, down):  2.297E-04 0.000E+00

     total cpu time spent up to now is       18.3 secs

     End of self-consistent calculation

          k = 0.0000 0.0000 0.0000 (  2082 PWs)   bands (ev):

   -61.6791 -35.9528 -35.9453 -35.5580 -16.5906 -14.9290  -7.6762  -5.5372
    -5.5274  -4.2133  -4.2069  -3.1767  -0.7890

     highest occupied level (ev):    -0.7890

!    total energy              =    -185.05317614 Ry
     Harris-Foulkes estimate   =    -185.05445803 Ry
     estimated scf accuracy    <       0.00148435 Ry

     The total energy is the sum of the following terms:

     one-electron contribution =   -1030.66262908 Ry
     hartree contribution      =     514.67632380 Ry
     xc contribution           =     -32.78561730 Ry
     ewald contribution        =     363.71874644 Ry

     convergence has been achieved in  29 iterations

     negative rho (up, down):  2.297E-04 0.000E+00

     Forces acting on atoms (cartesian axes, Ry/au):

     atom    1 type  1   force =     0.00207991   -0.00120084   -0.00000000
     atom    2 type  2   force =    -0.00103996    0.00060042    0.00952537
     atom    3 type  2   force =    -0.00103996    0.00060042   -0.00952537

     Total force =     0.013788     Total SCF correction =     0.251824
     SCF correction compared to forces is large: reduce conv_thr to get better values


     Computing stress (Cartesian axis) and pressure


     negative rho (up, down):  2.297E-04 0.000E+00
          total   stress  (Ry/bohr**3)                   (kbar)     P=       26.18
   0.00030043  -0.00000353  -0.00000000           44.19       -0.52       -0.00
  -0.00000353   0.00029635  -0.00000000           -0.52       43.59       -0.00
  -0.00000000  -0.00000000  -0.00006292           -0.00       -0.00       -9.26


     number of scf cycles    =   3
     number of bfgs steps    =   2

     enthalpy old            =    -185.0193336292 Ry
     enthalpy new            =    -185.0531761375 Ry

     CASE: enthalpy_new < enthalpy_old

     new trust radius        =       0.1545493525 bohr
     new conv_thr            =       0.0004762685 Ry

     new unit-cell volume =   1288.86939 a.u.^3 (   190.99074 Ang^3 )
     density =      1.39170 g/cm^3

CELL_PARAMETERS (angstrom)
   3.388553544  -0.001920755  -0.000000000
  -1.695940194   2.933613074  -0.000000000
   0.000000000   0.000000000  19.219295093

ATOMIC_POSITIONS (angstrom)
Mo            0.0003392604        1.9542656739        9.6096475464
S             1.6930066676        0.9770036906        8.2513747259
S             1.6930066676        0.9770036906       10.9679203669



     Writing output data file ./pwscf.save/
     NEW-OLD atomic charge density approx. for the potential

     negative rho (up, down):  2.886E-04 0.000E+00
     extrapolated charge   26.84255, renormalised to   26.00000

     total cpu time spent up to now is       21.3 secs

     Self-consistent Calculation

     iteration #  1     ecut=    35.00 Ry     beta= 0.70
     Davidson diagonalization with overlap
     ethr =  1.00E-06,  avg # of iterations = 14.0

     total cpu time spent up to now is       21.7 secs

     total energy              =      32.18332226 Ry
     Harris-Foulkes estimate   =    -163.91248309 Ry
     estimated scf accuracy    <     232.94569229 Ry

     iteration #  2     ecut=    35.00 Ry     beta= 0.70
     Davidson diagonalization with overlap
     c_bands:  1 eigenvalues not converged
     ethr =  1.00E-02,  avg # of iterations = 20.0

     total cpu time spent up to now is       22.0 secs

     total energy              =    -218.69487362 Ry
     Harris-Foulkes estimate   =    -329.31707188 Ry
     estimated scf accuracy    <     187.78044576 Ry

     iteration #  3     ecut=    35.00 Ry     beta= 0.70
     Davidson diagonalization with overlap
     ethr =  1.00E-02,  avg # of iterations = 11.0

     total cpu time spent up to now is       22.2 secs

     total energy              =    -210.63707217 Ry
     Harris-Foulkes estimate   =    -229.48900768 Ry
     estimated scf accuracy    <      53.96737910 Ry

     iteration #  4     ecut=    35.00 Ry     beta= 0.70
     Davidson diagonalization with overlap
     ethr =  1.00E-02,  avg # of iterations =  7.0

     total cpu time spent up to now is       22.4 secs

     total energy              =    -198.73502291 Ry
     Harris-Foulkes estimate   =    -212.12131246 Ry
     estimated scf accuracy    <      34.60363316 Ry

     iteration #  5     ecut=    35.00 Ry     beta= 0.70
     Davidson diagonalization with overlap
     ethr =  1.00E-02,  avg # of iterations =  5.0

     total cpu time spent up to now is       22.6 secs

     total energy              =    -196.26660372 Ry
     Harris-Foulkes estimate   =    -199.98332925 Ry
     estimated scf accuracy    <      23.03501620 Ry

     iteration #  6     ecut=    35.00 Ry     beta= 0.70
     Davidson diagonalization with overlap
     ethr =  1.00E-02,  avg # of iterations =  2.0

     total cpu time spent up to now is       22.8 secs

     total energy              =    -194.53400479 Ry
     Harris-Foulkes estimate   =    -196.48253945 Ry
     estimated scf accuracy    <      15.66815873 Ry

     iteration #  7     ecut=    35.00 Ry     beta= 0.70
     Davidson diagonalization with overlap
     ethr =  1.00E-02,  avg # of iterations =  1.0

     total cpu time spent up to now is       23.0 secs

     total energy              =    -186.80416946 Ry
     Harris-Foulkes estimate   =    -194.61292535 Ry
     estimated scf accuracy    <      13.25373471 Ry

     iteration #  8     ecut=    35.00 Ry     beta= 0.70
     Davidson diagonalization with overlap
     ethr =  1.00E-02,  avg # of iterations =  6.0

     total cpu time spent up to now is       23.2 secs

     total energy              =    -189.57624041 Ry
     Harris-Foulkes estimate   =    -189.62051302 Ry
     estimated scf accuracy    <      18.83146781 Ry

     iteration #  9     ecut=    35.00 Ry     beta= 0.70
     Davidson diagonalization with overlap
     ethr =  1.00E-02,  avg # of iterations =  1.0

     total cpu time spent up to now is       23.4 secs

     total energy              =    -189.48887933 Ry
     Harris-Foulkes estimate   =    -189.59997272 Ry
     estimated scf accuracy    <      18.03374062 Ry

     iteration # 10     ecut=    35.00 Ry     beta= 0.70
     Davidson diagonalization with overlap
     ethr =  1.00E-02,  avg # of iterations =  1.0

     negative rho (up, down):  2.952E-02 0.000E+00

     total cpu time spent up to now is       23.6 secs

     total energy              =    -186.02417412 Ry
     Harris-Foulkes estimate   =    -189.49995094 Ry
     estimated scf accuracy    <      17.58954367 Ry

     iteration # 11     ecut=    35.00 Ry     beta= 0.70
     Davidson diagonalization with overlap
     ethr =  1.00E-02,  avg # of iterations =  8.0

     negative rho (up, down):  3.610E-02 0.000E+00

     total cpu time spent up to now is       23.8 secs

     total energy              =    -185.61278455 Ry
     Harris-Foulkes estimate   =    -187.81904218 Ry
     estimated scf accuracy    <      52.11788263 Ry

     iteration # 12     ecut=    35.00 Ry     beta= 0.70
     Davidson diagonalization with overlap
     ethr =  1.00E-02,  avg # of iterations =  2.0

     negative rho (up, down):  3.233E-02 0.000E+00

     total cpu time spent up to now is       24.0 secs

     total energy              =    -181.70922337 Ry
     Harris-Foulkes estimate   =    -185.77081887 Ry
     estimated scf accuracy    <      39.08514432 Ry

     iteration # 13     ecut=    35.00 Ry     beta= 0.70
     Davidson diagonalization with overlap
     ethr =  1.00E-02,  avg # of iterations =  6.0

     negative rho (up, down):  1.139E-03 0.000E+00

     total cpu time spent up to now is       24.2 secs

     total energy              =    -180.56350252 Ry
     Harris-Foulkes estimate   =    -185.68320480 Ry
     estimated scf accuracy    <      10.98266142 Ry

     iteration # 14     ecut=    35.00 Ry     beta= 0.70
     Davidson diagonalization with overlap
     ethr =  1.00E-02,  avg # of iterations =  7.0

     negative rho (up, down):  9.898E-06 0.000E+00

     total cpu time spent up to now is       24.4 secs

     total energy              =    -187.86487367 Ry
     Harris-Foulkes estimate   =    -190.77847237 Ry
     estimated scf accuracy    <      33.75279150 Ry

     iteration # 15     ecut=    35.00 Ry     beta= 0.70
     Davidson diagonalization with overlap
     ethr =  1.00E-02,  avg # of iterations =  2.0

     total cpu time spent up to now is       24.6 secs

     total energy              =    -187.65528588 Ry
     Harris-Foulkes estimate   =    -188.24135414 Ry
     estimated scf accuracy    <      20.86431786 Ry

     iteration # 16     ecut=    35.00 Ry     beta= 0.70
     Davidson diagonalization with overlap
     ethr =  1.00E-02,  avg # of iterations =  1.0

     negative rho (up, down):  1.849E-02 0.000E+00

     total cpu time spent up to now is       24.7 secs

     total energy              =    -181.41902829 Ry
     Harris-Foulkes estimate   =    -187.70628088 Ry
     estimated scf accuracy    <      19.02191900 Ry

     iteration # 17     ecut=    35.00 Ry     beta= 0.70
     Davidson diagonalization with overlap
     ethr =  1.00E-02,  avg # of iterations =  5.0

     negative rho (up, down):  4.632E-03 0.000E+00

     total cpu time spent up to now is       24.9 secs

     total energy              =    -185.23566071 Ry
     Harris-Foulkes estimate   =    -187.29950085 Ry
     estimated scf accuracy    <      17.53964338 Ry

     iteration # 18     ecut=    35.00 Ry     beta= 0.70
     Davidson diagonalization with overlap
     ethr =  1.00E-02,  avg # of iterations =  3.0

     negative rho (up, down):  2.839E-03 0.000E+00

     total cpu time spent up to now is       25.1 secs

     total energy              =    -184.87384184 Ry
     Harris-Foulkes estimate   =    -185.66304352 Ry
     estimated scf accuracy    <       5.37797988 Ry

     iteration # 19     ecut=    35.00 Ry     beta= 0.70
     Davidson diagonalization with overlap
     ethr =  1.00E-02,  avg # of iterations =  5.0

     negative rho (up, down):  1.091E-04 0.000E+00

     total cpu time spent up to now is       25.3 secs

     total energy              =    -185.29580379 Ry
     Harris-Foulkes estimate   =    -185.28851903 Ry
     estimated scf accuracy    <       0.59401958 Ry

     iteration # 20     ecut=    35.00 Ry     beta= 0.70
     Davidson diagonalization with overlap
     ethr =  2.28E-03,  avg # of iterations =  3.0

     total cpu time spent up to now is       25.4 secs

     total energy              =    -185.28623027 Ry
     Harris-Foulkes estimate   =    -185.33658271 Ry
     estimated scf accuracy    <       0.48329078 Ry

     iteration # 21     ecut=    35.00 Ry     beta= 0.70
     Davidson diagonalization with overlap
     ethr =  1.86E-03,  avg # of iterations =  1.0

     negative rho (up, down):  3.881E-03 0.000E+00

     total cpu time spent up to now is       25.6 secs

     total energy              =    -185.04450084 Ry
     Harris-Foulkes estimate   =    -185.29139162 Ry
     estimated scf accuracy    <       0.40853869 Ry

     iteration # 22     ecut=    35.00 Ry     beta= 0.70
     Davidson diagonalization with overlap
     ethr =  1.57E-03,  avg # of iterations =  4.0

     total cpu time spent up to now is       25.8 secs

     total energy              =    -184.96799318 Ry
     Harris-Foulkes estimate   =    -185.27051019 Ry
     estimated scf accuracy    <       1.39559429 Ry

     iteration # 23     ecut=    35.00 Ry     beta= 0.70
     Davidson diagonalization with overlap
     ethr =  1.57E-03,  avg # of iterations =  3.0

     negative rho (up, down):  2.049E-08 0.000E+00

     total cpu time spent up to now is       26.0 secs

     total energy              =    -185.07066375 Ry
     Harris-Foulkes estimate   =    -185.09175176 Ry
     estimated scf accuracy    <       0.08753971 Ry

     iteration # 24     ecut=    35.00 Ry     beta= 0.70
     Davidson diagonalization with overlap
     ethr =  3.37E-04,  avg # of iterations =  3.0

     negative rho (up, down):  2.372E-06 0.000E+00

     total cpu time spent up to now is       26.1 secs

     total energy              =    -185.08694522 Ry
     Harris-Foulkes estimate   =    -185.08614239 Ry
     estimated scf accuracy    <       0.13784127 Ry

     iteration # 25     ecut=    35.00 Ry     beta= 0.70
     Davidson diagonalization with overlap
     ethr =  3.37E-04,  avg # of iterations =  1.0

     negative rho (up, down):  1.040E-03 0.000E+00

     total cpu time spent up to now is       26.3 secs

     total energy              =    -185.09993237 Ry
     Harris-Foulkes estimate   =    -185.08891777 Ry
     estimated scf accuracy    <       0.15332015 Ry

     iteration # 26     ecut=    35.00 Ry     beta= 0.70
     Davidson diagonalization with overlap
     ethr =  3.37E-04,  avg # of iterations =  3.0

     negative rho (up, down):  1.047E-03 0.000E+00

     total cpu time spent up to now is       26.5 secs

     total energy              =    -185.11522540 Ry
     Harris-Foulkes estimate   =    -185.10769730 Ry
     estimated scf accuracy    <       0.34600627 Ry

     iteration # 27     ecut=    35.00 Ry     beta= 0.70
     Davidson diagonalization with overlap
     ethr =  3.37E-04,  avg # of iterations =  1.0

     negative rho (up, down):  1.427E-03 0.000E+00

     total cpu time spent up to now is       26.7 secs

     total energy              =    -185.10784791 Ry
     Harris-Foulkes estimate   =    -185.11666110 Ry
     estimated scf accuracy    <       0.38141256 Ry

     iteration # 28     ecut=    35.00 Ry     beta= 0.70
     Davidson diagonalization with overlap
     ethr =  3.37E-04,  avg # of iterations =  1.0

     negative rho (up, down):  3.894E-03 0.000E+00

     total cpu time spent up to now is       26.8 secs

     total energy              =    -185.07763821 Ry
     Harris-Foulkes estimate   =    -185.10870953 Ry
     estimated scf accuracy    <       0.37257010 Ry

     iteration # 29     ecut=    35.00 Ry     beta= 0.70
     Davidson diagonalization with overlap
     ethr =  3.37E-04,  avg # of iterations =  3.0

     negative rho (up, down):  3.046E-04 0.000E+00

     total cpu time spent up to now is       27.0 secs

     total energy              =    -185.05449665 Ry
     Harris-Foulkes estimate   =    -185.09882714 Ry
     estimated scf accuracy    <       0.28719899 Ry

     iteration # 30     ecut=    35.00 Ry     beta= 0.70
     Davidson diagonalization with overlap
     ethr =  3.37E-04,  avg # of iterations =  3.0

     negative rho (up, down):  2.431E-04 0.000E+00

     total cpu time spent up to now is       27.2 secs

     total energy              =    -185.06363022 Ry
     Harris-Foulkes estimate   =    -185.06800718 Ry
     estimated scf accuracy    <       0.03960202 Ry

     iteration # 31     ecut=    35.00 Ry     beta= 0.70
     Davidson diagonalization with overlap
     ethr =  1.52E-04,  avg # of iterations =  2.0

     negative rho (up, down):  5.301E-04 0.000E+00

     total cpu time spent up to now is       27.4 secs

     total energy              =    -185.06165650 Ry
     Harris-Foulkes estimate   =    -185.06514521 Ry
     estimated scf accuracy    <       0.01617073 Ry

     iteration # 32     ecut=    35.00 Ry     beta= 0.70
     Davidson diagonalization with overlap
     ethr =  6.22E-05,  avg # of iterations =  4.0

     negative rho (up, down):  3.233E-04 0.000E+00

     total cpu time spent up to now is       27.5 secs

     total energy              =    -185.06516208 Ry
     Harris-Foulkes estimate   =    -185.06601107 Ry
     estimated scf accuracy    <       0.00563503 Ry

     iteration # 33     ecut=    35.00 Ry     beta= 0.70
     Davidson diagonalization with overlap
     ethr =  2.17E-05,  avg # of iterations =  2.0

     negative rho (up, down):  2.989E-04 0.000E+00

     total cpu time spent up to now is       27.7 secs

     total energy              =    -185.06524099 Ry
     Harris-Foulkes estimate   =    -185.06543398 Ry
     estimated scf accuracy    <       0.00127240 Ry

     iteration # 34     ecut=    35.00 Ry     beta= 0.70
     Davidson diagonalization with overlap
     ethr =  4.89E-06,  avg # of iterations =  3.0

     negative rho (up, down):  2.827E-04 0.000E+00

     total cpu time spent up to now is       27.9 secs

     End of self-consistent calculation

          k = 0.0000 0.0000 0.0000 (  2082 PWs)   bands (ev):

   -62.0140 -36.3377 -36.3335 -35.8005 -16.7878 -14.9078  -7.8062  -6.0646
    -6.0592  -4.5868  -4.5601  -3.0045  -0.7150

     highest occupied level (ev):    -0.7150

!    total energy              =    -185.06542895 Ry
     Harris-Foulkes estimate   =    -185.06546235 Ry
     estimated scf accuracy    <       0.00003866 Ry

     The total energy is the sum of the following terms:

     one-electron contribution =    -988.09146230 Ry
     hartree contribution      =     493.27185171 Ry
     xc contribution           =     -32.77409607 Ry
     ewald contribution        =     342.52827772 Ry

     convergence has been achieved in  34 iterations

     negative rho (up, down):  2.827E-04 0.000E+00

     Forces acting on atoms (cartesian axes, Ry/au):

     atom    1 type  1   force =    -0.00290844    0.00167919    0.00000000
     atom    2 type  2   force =     0.00145422   -0.00083960   -0.03134261
     atom    3 type  2   force =     0.00145422   -0.00083960    0.03134261

     Total force =     0.044516     Total SCF correction =     0.036508
     SCF correction compared to forces is large: reduce conv_thr to get better values


     Computing stress (Cartesian axis) and pressure


     negative rho (up, down):  2.827E-04 0.000E+00
          total   stress  (Ry/bohr**3)                   (kbar)     P=       21.71
   0.00016207   0.00000158  -0.00000000           23.84        0.23       -0.00
   0.00000158   0.00016390  -0.00000000            0.23       24.11       -0.00
  -0.00000000  -0.00000000   0.00011680           -0.00       -0.00       17.18


     number of scf cycles    =   4
     number of bfgs steps    =   3

     enthalpy old            =    -185.0531761375 Ry
     enthalpy new            =    -185.0654289472 Ry

     CASE: enthalpy_new < enthalpy_old

     new trust radius        =       0.0869206823 bohr
     new conv_thr            =       0.0015671307 Ry

     new unit-cell volume =   1320.26938 a.u.^3 (   195.64373 Ang^3 )
     density =      1.35860 g/cm^3

CELL_PARAMETERS (angstrom)
   3.429574246  -0.001977361  -0.000000000
  -1.716499568   2.969109740  -0.000000000
   0.000000000   0.000000000  19.219596626

ATOMIC_POSITIONS (angstrom)
Mo           -0.0013334370        1.9788581128        9.6097983131
S             1.7143207880        0.9883246841        8.2474829394
S             1.7143207880        0.9883246841       10.9721136868



     Writing output data file ./pwscf.save/
     NEW-OLD atomic charge density approx. for the potential

     negative rho (up, down):  3.466E-04 0.000E+00
     extrapolated charge   26.61833, renormalised to   26.00000

     total cpu time spent up to now is       30.8 secs

     Self-consistent Calculation

     iteration #  1     ecut=    35.00 Ry     beta= 0.70
     Davidson diagonalization with overlap
     ethr =  1.00E-06,  avg # of iterations = 14.0

     total cpu time spent up to now is       31.0 secs

     total energy              =     -21.20975972 Ry
     Harris-Foulkes estimate   =    -167.32407651 Ry
     estimated scf accuracy    <     175.59223897 Ry

     iteration #  2     ecut=    35.00 Ry     beta= 0.70
     Davidson diagonalization with overlap
     c_bands:  1 eigenvalues not converged
     ethr =  1.00E-02,  avg # of iterations = 20.0

     total cpu time spent up to now is       31.3 secs

     total energy              =    -208.43600082 Ry
     Harris-Foulkes estimate   =    -297.26448323 Ry
     estimated scf accuracy    <     153.52240803 Ry

     iteration #  3     ecut=    35.00 Ry     beta= 0.70
     Davidson diagonalization with overlap
     ethr =  1.00E-02,  avg # of iterations = 11.0

     total cpu time spent up to now is       31.5 secs

     total energy              =    -204.20316612 Ry
     Harris-Foulkes estimate   =    -219.03457734 Ry
     estimated scf accuracy    <      42.36818304 Ry

     iteration #  4     ecut=    35.00 Ry     beta= 0.70
     Davidson diagonalization with overlap
     ethr =  1.00E-02,  avg # of iterations =  7.0

     total cpu time spent up to now is       31.7 secs

     total energy              =    -195.89257996 Ry
     Harris-Foulkes estimate   =    -205.86233905 Ry
     estimated scf accuracy    <      26.96123222 Ry

     iteration #  5     ecut=    35.00 Ry     beta= 0.70
     Davidson diagonalization with overlap
     ethr =  1.00E-02,  avg # of iterations =  3.0

     total cpu time spent up to now is       31.9 secs

     total energy              =    -192.63216081 Ry
     Harris-Foulkes estimate   =    -196.09741407 Ry
     estimated scf accuracy    <      15.16242922 Ry

     iteration #  6     ecut=    35.00 Ry     beta= 0.70
     Davidson diagonalization with overlap
     ethr =  1.00E-02,  avg # of iterations =  1.0

     total cpu time spent up to now is       32.0 secs

     total energy              =    -187.54350895 Ry
     Harris-Foulkes estimate   =    -192.73279667 Ry
     estimated scf accuracy    <      11.04850929 Ry

     iteration #  7     ecut=    35.00 Ry     beta= 0.70
     Davidson diagonalization with overlap
     ethr =  1.00E-02,  avg # of iterations =  5.0

     total cpu time spent up to now is       32.2 secs

     total energy              =    -189.94056354 Ry
     Harris-Foulkes estimate   =    -188.69407557 Ry
     estimated scf accuracy    <       5.20611416 Ry

     iteration #  8     ecut=    35.00 Ry     beta= 0.70
     Davidson diagonalization with overlap
     ethr =  1.00E-02,  avg # of iterations =  1.0

     total cpu time spent up to now is       32.4 secs

     total energy              =    -190.78396721 Ry
     Harris-Foulkes estimate   =    -190.02597091 Ry
     estimated scf accuracy    <       6.40829825 Ry

     iteration #  9     ecut=    35.00 Ry     beta= 0.70
     Davidson diagonalization with overlap
     ethr =  1.00E-02,  avg # of iterations =  1.0

     total cpu time spent up to now is       32.6 secs

     total energy              =    -188.72720796 Ry
     Harris-Foulkes estimate   =    -190.80943630 Ry
     estimated scf accuracy    <       7.29928406 Ry

     iteration # 10     ecut=    35.00 Ry     beta= 0.70
     Davidson diagonalization with overlap
     ethr =  1.00E-02,  avg # of iterations =  6.0

     negative rho (up, down):  2.798E-01 0.000E+00

     total cpu time spent up to now is       32.7 secs

     total energy              =    -199.05492001 Ry
     Harris-Foulkes estimate   =    -190.92550116 Ry
     estimated scf accuracy    <      17.12995283 Ry

     iteration # 11     ecut=    35.00 Ry     beta= 0.70
     Davidson diagonalization with overlap
     ethr =  1.00E-02,  avg # of iterations =  5.0

     negative rho (up, down):  5.973E-01 0.000E+00

     total cpu time spent up to now is       32.9 secs

     total energy              =    -216.94086959 Ry
     Harris-Foulkes estimate   =    -203.92162233 Ry
     estimated scf accuracy    <      57.41175673 Ry

     iteration # 12     ecut=    35.00 Ry     beta= 0.70
     Davidson diagonalization with overlap
     ethr =  1.00E-02,  avg # of iterations =  2.0

     negative rho (up, down):  1.831E-02 0.000E+00

     total cpu time spent up to now is       33.1 secs

     total energy              =    -168.72615447 Ry
     Harris-Foulkes estimate   =    -217.39383779 Ry
     estimated scf accuracy    <      80.92492709 Ry

     iteration # 13     ecut=    35.00 Ry     beta= 0.70
     Davidson diagonalization with overlap
     ethr =  1.00E-02,  avg # of iterations = 13.0

     negative rho (up, down):  1.153E-02 0.000E+00

     total cpu time spent up to now is       33.3 secs

     total energy              =    -187.32899450 Ry
     Harris-Foulkes estimate   =    -191.71327820 Ry
     estimated scf accuracy    <     109.81322344 Ry

     iteration # 14     ecut=    35.00 Ry     beta= 0.70
     Davidson diagonalization with overlap
     ethr =  1.00E-02,  avg # of iterations =  4.0

     negative rho (up, down):  1.095E-07 0.000E+00

     total cpu time spent up to now is       33.5 secs

     total energy              =    -178.95019779 Ry
     Harris-Foulkes estimate   =    -187.81478233 Ry
     estimated scf accuracy    <      65.45976346 Ry

     iteration # 15     ecut=    35.00 Ry     beta= 0.70
     Davidson diagonalization with overlap
     ethr =  1.00E-02,  avg # of iterations =  7.0

     negative rho (up, down):  4.204E-03 0.000E+00

     total cpu time spent up to now is       33.7 secs

     total energy              =    -185.96922675 Ry
     Harris-Foulkes estimate   =    -185.71574796 Ry
     estimated scf accuracy    <       1.78830467 Ry

     iteration # 16     ecut=    35.00 Ry     beta= 0.70
     Davidson diagonalization with overlap
     ethr =  6.88E-03,  avg # of iterations =  3.0

     negative rho (up, down):  9.068E-03 0.000E+00

     total cpu time spent up to now is       33.9 secs

     total energy              =    -185.98791011 Ry
     Harris-Foulkes estimate   =    -186.09913691 Ry
     estimated scf accuracy    <       3.00837466 Ry

     iteration # 17     ecut=    35.00 Ry     beta= 0.70
     Davidson diagonalization with overlap
     ethr =  6.88E-03,  avg # of iterations =  1.0

     negative rho (up, down):  4.321E-02 0.000E+00

     total cpu time spent up to now is       34.1 secs

     total energy              =    -185.11251399 Ry
     Harris-Foulkes estimate   =    -186.01085797 Ry
     estimated scf accuracy    <       3.14553689 Ry

     iteration # 18     ecut=    35.00 Ry     beta= 0.70
     Davidson diagonalization with overlap
     ethr =  6.88E-03,  avg # of iterations =  2.0

     negative rho (up, down):  4.079E-02 0.000E+00

     total cpu time spent up to now is       34.2 secs

     total energy              =    -185.22343362 Ry
     Harris-Foulkes estimate   =    -185.25880777 Ry
     estimated scf accuracy    <       0.88389058 Ry

     iteration # 19     ecut=    35.00 Ry     beta= 0.70
     Davidson diagonalization with overlap
     ethr =  3.40E-03,  avg # of iterations =  1.0

     negative rho (up, down):  1.081E-01 0.000E+00

     total cpu time spent up to now is       34.4 secs

     total energy              =    -185.04106001 Ry
     Harris-Foulkes estimate   =    -185.24882385 Ry
     estimated scf accuracy    <       0.70752676 Ry

     iteration # 20     ecut=    35.00 Ry     beta= 0.70
     Davidson diagonalization with overlap
     ethr =  2.72E-03,  avg # of iterations =  4.0

     negative rho (up, down):  9.873E-02 0.000E+00

     total cpu time spent up to now is       34.6 secs

     total energy              =    -185.26624075 Ry
     Harris-Foulkes estimate   =    -185.36515643 Ry
     estimated scf accuracy    <       1.07689824 Ry

     iteration # 21     ecut=    35.00 Ry     beta= 0.70
     Davidson diagonalization with overlap
     ethr =  2.72E-03,  avg # of iterations =  1.0

     negative rho (up, down):  8.197E-02 0.000E+00

     total cpu time spent up to now is       34.8 secs

     total energy              =    -185.32383065 Ry
     Harris-Foulkes estimate   =    -185.27546992 Ry
     estimated scf accuracy    <       0.78886638 Ry

     iteration # 22     ecut=    35.00 Ry     beta= 0.70
     Davidson diagonalization with overlap
     ethr =  2.72E-03,  avg # of iterations =  1.0

     negative rho (up, down):  1.089E-01 0.000E+00

     total cpu time spent up to now is       34.9 secs

     total energy              =    -184.79340450 Ry
     Harris-Foulkes estimate   =    -185.33121842 Ry
     estimated scf accuracy    <       0.76803239 Ry

     iteration # 23     ecut=    35.00 Ry     beta= 0.70
     Davidson diagonalization with overlap
     ethr =  2.72E-03,  avg # of iterations =  8.0

     negative rho (up, down):  2.389E-02 0.000E+00

     total cpu time spent up to now is       35.1 secs

     total energy              =    -184.66417364 Ry
     Harris-Foulkes estimate   =    -185.68871776 Ry
     estimated scf accuracy    <      11.48039700 Ry

     iteration # 24     ecut=    35.00 Ry     beta= 0.70
     Davidson diagonalization with overlap
     ethr =  2.72E-03,  avg # of iterations =  7.0

     negative rho (up, down):  4.059E-02 0.000E+00

     total cpu time spent up to now is       35.3 secs

     total energy              =    -185.11222065 Ry
     Harris-Foulkes estimate   =    -185.24521919 Ry
     estimated scf accuracy    <       1.35557513 Ry

     iteration # 25     ecut=    35.00 Ry     beta= 0.70
     Davidson diagonalization with overlap
     ethr =  2.72E-03,  avg # of iterations =  1.0

     negative rho (up, down):  9.735E-02 0.000E+00

     total cpu time spent up to now is       35.5 secs

     total energy              =    -185.10474230 Ry
     Harris-Foulkes estimate   =    -185.13567161 Ry
     estimated scf accuracy    <       0.94703069 Ry

     iteration # 26     ecut=    35.00 Ry     beta= 0.70
     Davidson diagonalization with overlap
     ethr =  2.72E-03,  avg # of iterations =  1.0

     negative rho (up, down):  1.435E-01 0.000E+00

     total cpu time spent up to now is       35.7 secs

     total energy              =    -185.05102900 Ry
     Harris-Foulkes estimate   =    -185.12274760 Ry
     estimated scf accuracy    <       0.83186941 Ry

     iteration # 27     ecut=    35.00 Ry     beta= 0.70
     Davidson diagonalization with overlap
     ethr =  2.72E-03,  avg # of iterations =  7.0

     negative rho (up, down):  1.234E-01 0.000E+00

     total cpu time spent up to now is       35.8 secs

     total energy              =    -185.17177192 Ry
     Harris-Foulkes estimate   =    -185.35757682 Ry
     estimated scf accuracy    <       9.64885555 Ry

     iteration # 28     ecut=    35.00 Ry     beta= 0.70
     Davidson diagonalization with overlap
     ethr =  2.72E-03,  avg # of iterations =  3.0

     negative rho (up, down):  1.262E-01 0.000E+00

     total cpu time spent up to now is       36.0 secs

     total energy              =    -184.85877999 Ry
     Harris-Foulkes estimate   =    -185.21095036 Ry
     estimated scf accuracy    <       8.81080634 Ry

     iteration # 29     ecut=    35.00 Ry     beta= 0.70
     Davidson diagonalization with overlap
     ethr =  2.72E-03,  avg # of iterations =  4.0

     negative rho (up, down):  9.685E-02 0.000E+00

     total cpu time spent up to now is       36.2 secs

     total energy              =    -184.89003848 Ry
     Harris-Foulkes estimate   =    -184.97067182 Ry
     estimated scf accuracy    <       6.73555653 Ry

     iteration # 30     ecut=    35.00 Ry     beta= 0.70
     Davidson diagonalization with overlap
     ethr =  2.72E-03,  avg # of iterations =  2.0

     negative rho (up, down):  5.928E-02 0.000E+00

     total cpu time spent up to now is       36.4 secs

     total energy              =    -184.62868275 Ry
     Harris-Foulkes estimate   =    -184.90893987 Ry
     estimated scf accuracy    <       6.36860678 Ry

     iteration # 31     ecut=    35.00 Ry     beta= 0.70
     Davidson diagonalization with overlap
     ethr =  2.72E-03,  avg # of iterations =  6.0

     negative rho (up, down):  5.300E-02 0.000E+00

     total cpu time spent up to now is       36.5 secs

     total energy              =    -185.06357288 Ry
     Harris-Foulkes estimate   =    -185.07420015 Ry
     estimated scf accuracy    <       0.11154355 Ry

     iteration # 32     ecut=    35.00 Ry     beta= 0.70
     Davidson diagonalization with overlap
     ethr =  4.29E-04,  avg # of iterations =  3.0

     negative rho (up, down):  8.581E-02 0.000E+00

     total cpu time spent up to now is       36.7 secs

     total energy              =    -185.08059689 Ry
     Harris-Foulkes estimate   =    -185.07256263 Ry
     estimated scf accuracy    <       0.02607544 Ry

     iteration # 33     ecut=    35.00 Ry     beta= 0.70
     Davidson diagonalization with overlap
     ethr =  1.00E-04,  avg # of iterations =  4.0

     negative rho (up, down):  7.973E-02 0.000E+00

     total cpu time spent up to now is       36.9 secs

     total energy              =    -185.08282271 Ry
     Harris-Foulkes estimate   =    -185.08571054 Ry
     estimated scf accuracy    <       0.02983989 Ry

     iteration # 34     ecut=    35.00 Ry     beta= 0.70
     Davidson diagonalization with overlap
     ethr =  1.00E-04,  avg # of iterations =  1.0

     negative rho (up, down):  7.790E-02 0.000E+00

     total cpu time spent up to now is       37.1 secs

     total energy              =    -185.08194823 Ry
     Harris-Foulkes estimate   =    -185.08308176 Ry
     estimated scf accuracy    <       0.02426892 Ry

     iteration # 35     ecut=    35.00 Ry     beta= 0.70
     Davidson diagonalization with overlap
     ethr =  9.33E-05,  avg # of iterations =  1.0

     negative rho (up, down):  7.711E-02 0.000E+00

     total cpu time spent up to now is       37.2 secs

     total energy              =    -185.08225619 Ry
     Harris-Foulkes estimate   =    -185.08247961 Ry
     estimated scf accuracy    <       0.02157259 Ry

     iteration # 36     ecut=    35.00 Ry     beta= 0.70
     Davidson diagonalization with overlap
     ethr =  8.30E-05,  avg # of iterations =  1.0

     negative rho (up, down):  7.314E-02 0.000E+00

     total cpu time spent up to now is       37.4 secs

     total energy              =    -185.08103071 Ry
     Harris-Foulkes estimate   =    -185.08282635 Ry
     estimated scf accuracy    <       0.02234554 Ry

     iteration # 37     ecut=    35.00 Ry     beta= 0.70
     Davidson diagonalization with overlap
     ethr =  8.30E-05,  avg # of iterations =  3.0

     negative rho (up, down):  7.280E-02 0.000E+00

     total cpu time spent up to now is       37.6 secs

     total energy              =    -185.08267760 Ry
     Harris-Foulkes estimate   =    -185.08370078 Ry
     estimated scf accuracy    <       0.04057302 Ry

     iteration # 38     ecut=    35.00 Ry     beta= 0.70
     Davidson diagonalization with overlap
     ethr =  8.30E-05,  avg # of iterations =  1.0

     negative rho (up, down):  7.116E-02 0.000E+00

     total cpu time spent up to now is       37.7 secs

     total energy              =    -185.08340637 Ry
     Harris-Foulkes estimate   =    -185.08275586 Ry
     estimated scf accuracy    <       0.03746944 Ry

     iteration # 39     ecut=    35.00 Ry     beta= 0.70
     Davidson diagonalization with overlap
     ethr =  8.30E-05,  avg # of iterations =  1.0

     negative rho (up, down):  1.155E-02 0.000E+00

     total cpu time spent up to now is       37.9 secs

     total energy              =    -185.06752433 Ry
     Harris-Foulkes estimate   =    -185.08350622 Ry
     estimated scf accuracy    <       0.03906566 Ry

     iteration # 40     ecut=    35.00 Ry     beta= 0.70
     Davidson diagonalization with overlap
     ethr =  8.30E-05,  avg # of iterations =  3.0

     negative rho (up, down):  2.759E-03 0.000E+00

     total cpu time spent up to now is       38.1 secs

     total energy              =    -185.06931561 Ry
     Harris-Foulkes estimate   =    -185.07169537 Ry
     estimated scf accuracy    <       0.01500652 Ry

     iteration # 41     ecut=    35.00 Ry     beta= 0.70
     Davidson diagonalization with overlap
     ethr =  5.77E-05,  avg # of iterations =  2.0

     negative rho (up, down):  1.523E-03 0.000E+00

     total cpu time spent up to now is       38.2 secs

     total energy              =    -185.06914753 Ry
     Harris-Foulkes estimate   =    -185.07050819 Ry
     estimated scf accuracy    <       0.00532540 Ry

     iteration # 42     ecut=    35.00 Ry     beta= 0.70
     Davidson diagonalization with overlap
     ethr =  2.05E-05,  avg # of iterations =  3.0

     negative rho (up, down):  3.317E-04 0.000E+00

     total cpu time spent up to now is       38.4 secs

     End of self-consistent calculation

          k = 0.0000 0.0000 0.0000 (  2082 PWs)   bands (ev):

   -62.1492 -36.4674 -36.4594 -35.8825 -16.6581 -14.8170  -7.6739  -6.0443
    -6.0329  -4.5635  -4.5612  -2.9430  -0.7219

     highest occupied level (ev):    -0.7219

!    total energy              =    -185.06959266 Ry
     Harris-Foulkes estimate   =    -185.06985063 Ry
     estimated scf accuracy    <       0.00028919 Ry

     The total energy is the sum of the following terms:

     one-electron contribution =    -966.00502650 Ry
     hartree contribution      =     482.12196661 Ry
     xc contribution           =     -32.72011678 Ry
     ewald contribution        =     331.53358400 Ry

     convergence has been achieved in  42 iterations

     negative rho (up, down):  3.317E-04 0.000E+00

     Forces acting on atoms (cartesian axes, Ry/au):

     atom    1 type  1   force =     0.00048165   -0.00027808   -0.00000000
     atom    2 type  2   force =    -0.00024083    0.00013904   -0.02881804
     atom    3 type  2   force =    -0.00024083    0.00013904    0.02881804

     Total force =     0.040761     Total SCF correction =     0.086115
     SCF correction compared to forces is large: reduce conv_thr to get better values


     Computing stress (Cartesian axis) and pressure


     negative rho (up, down):  3.317E-04 0.000E+00
          total   stress  (Ry/bohr**3)                   (kbar)     P=       14.86
   0.00009990   0.00000076  -0.00000000           14.70        0.11       -0.00
   0.00000076   0.00010078  -0.00000000            0.11       14.83       -0.00
  -0.00000000  -0.00000000   0.00010231           -0.00       -0.00       15.05


     number of scf cycles    =   5
     number of bfgs steps    =   4

     enthalpy old            =    -185.0654289472 Ry
     enthalpy new            =    -185.0695926615 Ry

     CASE: enthalpy_new < enthalpy_old

     new trust radius        =       0.0956129618 bohr
     new conv_thr            =       0.0014409021 Ry

     new unit-cell volume =   1358.24096 a.u.^3 (   201.27054 Ang^3 )
     density =      1.32062 g/cm^3

CELL_PARAMETERS (angstrom)
   3.474697018  -0.002017970  -0.000000000
  -1.739096122   3.008166903  -0.000000000
   0.000000000   0.000000000  19.262257600

ATOMIC_POSITIONS (angstrom)
Mo           -0.0008263173        2.0045763636        9.6311287999
S             1.7366052820        1.0014697619        8.2513414156
S             1.7366052820        1.0014697619       11.0109161841



     Writing output data file ./pwscf.save/
     NEW-OLD atomic charge density approx. for the potential

     negative rho (up, down):  4.222E-04 0.000E+00
     extrapolated charge   26.72684, renormalised to   26.00000

     total cpu time spent up to now is       41.2 secs

     Self-consistent Calculation

     iteration #  1     ecut=    35.00 Ry     beta= 0.70
     Davidson diagonalization with overlap
     ethr =  1.00E-06,  avg # of iterations = 14.0

     total cpu time spent up to now is       41.5 secs

     total energy              =      -4.28290054 Ry
     Harris-Foulkes estimate   =    -166.14134288 Ry
     estimated scf accuracy    <     193.76467022 Ry

     iteration #  2     ecut=    35.00 Ry     beta= 0.70
     Davidson diagonalization with overlap
     c_bands:  3 eigenvalues not converged
     ethr =  1.00E-02,  avg # of iterations = 20.0

     total cpu time spent up to now is       41.7 secs

     total energy              =    -211.67032555 Ry
     Harris-Foulkes estimate   =    -307.08372835 Ry
     estimated scf accuracy    <     163.64977182 Ry

     iteration #  3     ecut=    35.00 Ry     beta= 0.70
     Davidson diagonalization with overlap
     ethr =  1.00E-02,  avg # of iterations = 11.0

     total cpu time spent up to now is       42.0 secs

     total energy              =    -206.33421375 Ry
     Harris-Foulkes estimate   =    -222.38665875 Ry
     estimated scf accuracy    <      46.14930051 Ry

     iteration #  4     ecut=    35.00 Ry     beta= 0.70
     Davidson diagonalization with overlap
     ethr =  1.00E-02,  avg # of iterations =  8.0

     total cpu time spent up to now is       42.2 secs

     total energy              =    -196.93503843 Ry
     Harris-Foulkes estimate   =    -208.04731614 Ry
     estimated scf accuracy    <      29.44300866 Ry

     iteration #  5     ecut=    35.00 Ry     beta= 0.70
     Davidson diagonalization with overlap
     ethr =  1.00E-02,  avg # of iterations =  6.0

     total cpu time spent up to now is       42.3 secs

     total energy              =    -195.42403573 Ry
     Harris-Foulkes estimate   =    -197.29986607 Ry
     estimated scf accuracy    <      16.04153503 Ry

     iteration #  6     ecut=    35.00 Ry     beta= 0.70
     Davidson diagonalization with overlap
     ethr =  1.00E-02,  avg # of iterations =  1.0

     total cpu time spent up to now is       42.5 secs

     total energy              =    -189.78602852 Ry
     Harris-Foulkes estimate   =    -195.48085805 Ry
     estimated scf accuracy    <      13.63094920 Ry

     iteration #  7     ecut=    35.00 Ry     beta= 0.70
     Davidson diagonalization with overlap
     ethr =  1.00E-02,  avg # of iterations =  5.0

     total cpu time spent up to now is       42.7 secs

     total energy              =    -191.49099721 Ry
     Harris-Foulkes estimate   =    -191.20203234 Ry
     estimated scf accuracy    <      14.61656174 Ry

     iteration #  8     ecut=    35.00 Ry     beta= 0.70
     Davidson diagonalization with overlap
     ethr =  1.00E-02,  avg # of iterations =  1.0

     total cpu time spent up to now is       42.9 secs

     total energy              =    -191.33388025 Ry
     Harris-Foulkes estimate   =    -191.57048357 Ry
     estimated scf accuracy    <      13.33021436 Ry

     iteration #  9     ecut=    35.00 Ry     beta= 0.70
     Davidson diagonalization with overlap
     ethr =  1.00E-02,  avg # of iterations =  1.0

     total cpu time spent up to now is       43.0 secs

     total energy              =    -187.22483167 Ry
     Harris-Foulkes estimate   =    -191.37020582 Ry
     estimated scf accuracy    <      12.75426365 Ry

     iteration # 10     ecut=    35.00 Ry     beta= 0.70
     Davidson diagonalization with overlap
     ethr =  1.00E-02,  avg # of iterations =  6.0

     negative rho (up, down):  5.102E-02 0.000E+00

     total cpu time spent up to now is       43.2 secs

     total energy              =    -185.22445828 Ry
     Harris-Foulkes estimate   =    -188.47974045 Ry
     estimated scf accuracy    <       8.55522413 Ry

     iteration # 11     ecut=    35.00 Ry     beta= 0.70
     Davidson diagonalization with overlap
     ethr =  1.00E-02,  avg # of iterations = 10.0

     negative rho (up, down):  2.046E-02 0.000E+00

     total cpu time spent up to now is       43.4 secs

     total energy              =    -182.52619188 Ry
     Harris-Foulkes estimate   =    -186.79056794 Ry
     estimated scf accuracy    <      43.17396856 Ry

     iteration # 12     ecut=    35.00 Ry     beta= 0.70
     Davidson diagonalization with overlap
     ethr =  1.00E-02,  avg # of iterations =  8.0

     total cpu time spent up to now is       43.6 secs

     total energy              =    -185.22253337 Ry
     Harris-Foulkes estimate   =    -185.35328486 Ry
     estimated scf accuracy    <       1.43459625 Ry

     iteration # 13     ecut=    35.00 Ry     beta= 0.70
     Davidson diagonalization with overlap
     ethr =  5.52E-03,  avg # of iterations =  2.0

     total cpu time spent up to now is       43.8 secs

     total energy              =    -185.03738164 Ry
     Harris-Foulkes estimate   =    -185.36137999 Ry
     estimated scf accuracy    <       1.10694364 Ry

     iteration # 14     ecut=    35.00 Ry     beta= 0.70
     Davidson diagonalization with overlap
     ethr =  4.26E-03,  avg # of iterations =  3.0

     negative rho (up, down):  1.364E-05 0.000E+00

     total cpu time spent up to now is       44.0 secs

     total energy              =    -184.98875389 Ry
     Harris-Foulkes estimate   =    -185.26339237 Ry
     estimated scf accuracy    <       0.69050172 Ry

     iteration # 15     ecut=    35.00 Ry     beta= 0.70
     Davidson diagonalization with overlap
     ethr =  2.66E-03,  avg # of iterations =  6.0

     total cpu time spent up to now is       44.2 secs

     total energy              =    -184.54703792 Ry
     Harris-Foulkes estimate   =    -185.71263173 Ry
     estimated scf accuracy    <       7.79013774 Ry

     iteration # 16     ecut=    35.00 Ry     beta= 0.70
     Davidson diagonalization with overlap
     ethr =  2.66E-03,  avg # of iterations =  4.0

     total cpu time spent up to now is       44.3 secs

     total energy              =    -185.27571894 Ry
     Harris-Foulkes estimate   =    -185.36559253 Ry
     estimated scf accuracy    <       0.53035877 Ry

     iteration # 17     ecut=    35.00 Ry     beta= 0.70
     Davidson diagonalization with overlap
     ethr =  2.04E-03,  avg # of iterations =  1.0

[...]
    -5.9232  -4.5481  -4.5471  -3.0448  -0.8828

     highest occupied level (ev):    -0.8828

!    total energy              =    -185.07267116 Ry
     Harris-Foulkes estimate   =    -185.07271412 Ry
     estimated scf accuracy    <       0.00004698 Ry

     The total energy is the sum of the following terms:

     one-electron contribution =    -942.84972347 Ry
     hartree contribution      =     470.60621569 Ry
     xc contribution           =     -32.62761670 Ry
     ewald contribution        =     319.79845331 Ry

     convergence has been achieved in  20 iterations

     negative rho (up, down):  4.330E-04 0.000E+00

     Forces acting on atoms (cartesian axes, Ry/au):

     atom    1 type  1   force =     0.00006794   -0.00003923   -0.00000000
     atom    2 type  2   force =    -0.00003397    0.00001961    0.00154525
     atom    3 type  2   force =    -0.00003397    0.00001961   -0.00154525

     Total force =     0.002187     Total SCF correction =     0.017271
     SCF correction compared to forces is large: reduce conv_thr to get better values


     Computing stress (Cartesian axis) and pressure


     negative rho (up, down):  4.330E-04 0.000E+00
          total   stress  (Ry/bohr**3)                   (kbar)     P=        0.76
   0.00000349  -0.00000030  -0.00000000            0.51       -0.04       -0.00
  -0.00000030   0.00000315  -0.00000000           -0.04        0.46       -0.00
  -0.00000000  -0.00000000   0.00000887           -0.00       -0.00        1.30


     number of scf cycles    =   9
     number of bfgs steps    =   8

     enthalpy old            =    -185.0726538309 Ry
     enthalpy new            =    -185.0726711637 Ry

     CASE: enthalpy_new < enthalpy_old

     new trust radius        =       0.0013091120 bohr
     new conv_thr            =       0.0000500000 Ry

     new unit-cell volume =   1366.47093 a.u.^3 (   202.49010 Ang^3 )
     density =      1.31267 g/cm^3

CELL_PARAMETERS (angstrom)
   3.479344458  -0.001504380  -0.000000000
  -1.740975060   3.012448499  -0.000000000
   0.000000000   0.000000000  19.323921641

ATOMIC_POSITIONS (angstrom)
Mo           -0.0010078971        2.0078779893        9.6619608206
S             1.7393163240        1.0031013317        8.2721449193
S             1.7393163240        1.0031013317       11.0517767219



     Writing output data file ./pwscf.save/
     NEW-OLD atomic charge density approx. for the potential

     negative rho (up, down):  4.336E-04 0.000E+00
     extrapolated charge   26.01229, renormalised to   26.00000

     total cpu time spent up to now is       66.4 secs

     Self-consistent Calculation

     iteration #  1     ecut=    35.00 Ry     beta= 0.70
     Davidson diagonalization with overlap
     ethr =  1.00E-06,  avg # of iterations =  5.0

     negative rho (up, down):  4.241E-04 0.000E+00

     total cpu time spent up to now is       66.6 secs

     total energy              =    -185.06871780 Ry
     Harris-Foulkes estimate   =    -184.64398900 Ry
     estimated scf accuracy    <       0.00477061 Ry

     iteration #  2     ecut=    35.00 Ry     beta= 0.70
     Davidson diagonalization with overlap
     ethr =  1.83E-05,  avg # of iterations =  5.0

     negative rho (up, down):  4.251E-04 0.000E+00

     total cpu time spent up to now is       66.8 secs

     total energy              =    -185.06432315 Ry
     Harris-Foulkes estimate   =    -185.08421686 Ry
     estimated scf accuracy    <       0.08743330 Ry

     iteration #  3     ecut=    35.00 Ry     beta= 0.70
     Davidson diagonalization with overlap
     ethr =  1.83E-05,  avg # of iterations =  5.0

     negative rho (up, down):  4.267E-04 0.000E+00

     total cpu time spent up to now is       66.9 secs

     total energy              =    -185.07266557 Ry
     Harris-Foulkes estimate   =    -185.07291178 Ry
     estimated scf accuracy    <       0.00158929 Ry

     iteration #  4     ecut=    35.00 Ry     beta= 0.70
     Davidson diagonalization with overlap
     ethr =  6.11E-06,  avg # of iterations =  2.0

     negative rho (up, down):  4.288E-04 0.000E+00

     total cpu time spent up to now is       67.1 secs

     total energy              =    -185.07271811 Ry
     Harris-Foulkes estimate   =    -185.07276117 Ry
     estimated scf accuracy    <       0.00043785 Ry

     iteration #  5     ecut=    35.00 Ry     beta= 0.70
     Davidson diagonalization with overlap
     ethr =  1.68E-06,  avg # of iterations =  2.0

     negative rho (up, down):  4.303E-04 0.000E+00

     total cpu time spent up to now is       67.3 secs

     total energy              =    -185.07271328 Ry
     Harris-Foulkes estimate   =    -185.07273754 Ry
     estimated scf accuracy    <       0.00029579 Ry

     iteration #  6     ecut=    35.00 Ry     beta= 0.70
     Davidson diagonalization with overlap
     ethr =  1.14E-06,  avg # of iterations =  1.0

     negative rho (up, down):  4.309E-04 0.000E+00

     total cpu time spent up to now is       67.4 secs

     total energy              =    -185.07270426 Ry
     Harris-Foulkes estimate   =    -185.07271886 Ry
     estimated scf accuracy    <       0.00020721 Ry

     iteration #  7     ecut=    35.00 Ry     beta= 0.70
     Davidson diagonalization with overlap
     ethr =  7.97E-07,  avg # of iterations =  1.0

     negative rho (up, down):  4.315E-04 0.000E+00

     total cpu time spent up to now is       67.6 secs

     total energy              =    -185.07269713 Ry
     Harris-Foulkes estimate   =    -185.07270861 Ry
     estimated scf accuracy    <       0.00014380 Ry

     iteration #  8     ecut=    35.00 Ry     beta= 0.70
     Davidson diagonalization with overlap
     ethr =  5.53E-07,  avg # of iterations =  1.0

     negative rho (up, down):  4.322E-04 0.000E+00

     total cpu time spent up to now is       67.8 secs

     total energy              =    -185.07269206 Ry
     Harris-Foulkes estimate   =    -185.07270171 Ry
     estimated scf accuracy    <       0.00008809 Ry

     iteration #  9     ecut=    35.00 Ry     beta= 0.70
     Davidson diagonalization with overlap
     ethr =  3.39E-07,  avg # of iterations =  3.0

     negative rho (up, down):  4.356E-04 0.000E+00

     total cpu time spent up to now is       67.9 secs

     End of self-consistent calculation

          k = 0.0000 0.0000 0.0000 (  2082 PWs)   bands (ev):

   -62.3359 -36.6408 -36.6356 -36.0234 -16.4830 -14.8086  -7.5332  -5.9403
    -5.9323  -4.5572  -4.5559  -3.0527  -0.8816

     highest occupied level (ev):    -0.8816

!    total energy              =    -185.07270393 Ry
     Harris-Foulkes estimate   =    -185.07270875 Ry
     estimated scf accuracy    <       0.00000604 Ry

     The total energy is the sum of the following terms:

     one-electron contribution =    -942.76572173 Ry
     hartree contribution      =     470.51652592 Ry
     xc contribution           =     -32.62619149 Ry
     ewald contribution        =     319.80268337 Ry

     convergence has been achieved in   9 iterations

     negative rho (up, down):  4.356E-04 0.000E+00

     Forces acting on atoms (cartesian axes, Ry/au):

     atom    1 type  1   force =     0.00004048   -0.00002337   -0.00000000
     atom    2 type  2   force =    -0.00002024    0.00001169    0.00024815
     atom    3 type  2   force =    -0.00002024    0.00001169   -0.00024815

     Total force =     0.000356     Total SCF correction =     0.006576
     SCF correction compared to forces is large: reduce conv_thr to get better values


     Computing stress (Cartesian axis) and pressure


     negative rho (up, down):  4.356E-04 0.000E+00
          total   stress  (Ry/bohr**3)                   (kbar)     P=       -0.03
   0.00000003   0.00000025  -0.00000000            0.00        0.04       -0.00
   0.00000025   0.00000032   0.00000000            0.04        0.05        0.00
  -0.00000000  -0.00000000  -0.00000092           -0.00       -0.00       -0.14


     bfgs converged in  10 scf cycles and   9 bfgs steps
     (criteria: energy <  1.0E-04 Ry, force <  1.0E-03Ry/Bohr, cell <  5.0E-01kbar)

     End of BFGS Geometry Optimization

     Final enthalpy =    -185.0727039319 Ry
Begin final coordinates
     new unit-cell volume =   1366.47093 a.u.^3 (   202.49010 Ang^3 )
     density =      1.31267 g/cm^3

CELL_PARAMETERS (angstrom)
   3.479344458  -0.001504380  -0.000000000
  -1.740975060   3.012448499  -0.000000000
   0.000000000   0.000000000  19.323921641

ATOMIC_POSITIONS (angstrom)
Mo           -0.0010078971        2.0078779893        9.6619608206
S             1.7393163240        1.0031013317        8.2721449193
S             1.7393163240        1.0031013317       11.0517767219
End final coordinates



     Writing output data file ./pwscf.save/

     Final scf calculation at the relaxed structure.
     The G-vectors are recalculated for the final unit cell
     Results may differ from those at the preceding step.

     G-vector sticks info
     --------------------
     sticks:   dense  smooth     PW     G-vecs:    dense   smooth      PW
     Sum         421     421    109                38329    38329    4777



     bravais-lattice index     =            0
     lattice parameter (alat)  =       6.0288  a.u.
     unit-cell volume          =    1366.4709 (a.u.)^3
     number of atoms/cell      =            3
     number of atomic types    =            2
     number of electrons       =        26.00
     number of Kohn-Sham states=           13
     kinetic-energy cutoff     =      35.0000  Ry
     charge density cutoff     =     140.0000  Ry
     convergence threshold     =      5.0E-05
     mixing beta               =       0.7000
     number of iterations used =            8  plain     mixing
     Exchange-correlation=  SLA  PW   PBX  PBC
                           (   1   4   3   4   0   0   0)

     celldm(1)=   6.028831  celldm(2)=   0.000000  celldm(3)=   0.000000
     celldm(4)=   0.000000  celldm(5)=   0.000000  celldm(6)=   0.000000

     crystal axes: (cart. coord. in units of alat)
               a(1) = (   1.090594  -0.000472  -0.000000 )  
               a(2) = (  -0.545705   0.944247  -0.000000 )  
               a(3) = (   0.000000   0.000000   6.057048 )  

     reciprocal axes: (cart. coord. in units 2 pi/alat)
               b(1) = (  0.917161  0.530052 -0.000000 )  
               b(2) = (  0.000458  1.059310 -0.000000 )  
               b(3) = (  0.000000  0.000000  0.165097 )  


     PseudoPot. # 1 for Mo read from file:
     ./pseudos/Mo_ONCV_PBE-1.0.oncvpsp.upf
     MD5 check sum: 1b5d28e075c9ccadda658a603575cd1f
     Pseudo is Norm-conserving, Zval = 14.0
     Generated using ONCVPSP code by D. R. Hamann
     Using radial grid of 1526 points,  6 beta functions with: 
                l(1) =   0
                l(2) =   0
                l(3) =   1
                l(4) =   1
                l(5) =   2
                l(6) =   2

     PseudoPot. # 2 for S  read from file:
     ./pseudos/s_pbe_v1.4.uspp.F.UPF
     MD5 check sum: 88d86576ff6df21479756cfb9bdac1df
     Pseudo is Ultrasoft + core correction, Zval =  6.0
     Generated by new atomic code, or converted to UPF format
     Using radial grid of  907 points,  6 beta functions with: 
                l(1) =   0
                l(2) =   0
                l(3) =   1
                l(4) =   1
                l(5) =   2
                l(6) =   2
     Q(r) pseudized with  8 coefficients,  rinner =    1.300   1.300   1.300
                                                       1.300   1.300

     atomic species   valence    mass     pseudopotential
        Mo            14.00    95.95000     Mo( 1.00)
        S              6.00    32.06000     S ( 1.00)

      4 Sym. Ops. (no inversion) found



   Cartesian axes

     site n.     atom                  positions (alat units)
         1           Mo  tau(   1) = (  -0.0003159   0.6293657   3.0285240  )
         2           S   tau(   2) = (   0.5451855   0.3144203   2.5928888  )
         3           S   tau(   3) = (   0.5451855   0.3144203   3.4641593  )

     number of k points=     1
                       cart. coord. in units 2pi/alat
        k(    1) = (   0.0000000   0.0000000   0.0000000), wk =   2.0000000

     Dense  grid:    19165 G-vectors     FFT dimensions: (  25,  25, 144)

     Estimated max dynamical RAM per process >      79.86 MB

     Initial potential from superposition of free atoms

     starting charge   25.99894, renormalised to   26.00000

     negative rho (up, down):  3.243E-04 0.000E+00
     Starting wfcs are   18 randomized atomic wfcs

     total cpu time spent up to now is       70.9 secs

     Self-consistent Calculation

     iteration #  1     ecut=    35.00 Ry     beta= 0.70
     Davidson diagonalization with overlap
     ethr =  1.00E-06,  avg # of iterations =  9.0

     negative rho (up, down):  2.171E-04 0.000E+00

     total cpu time spent up to now is       71.1 secs

     total energy              =    -184.86550843 Ry
     Harris-Foulkes estimate   =    -185.17049406 Ry
     estimated scf accuracy    <       0.47814610 Ry

     iteration #  2     ecut=    35.00 Ry     beta= 0.70
     Davidson diagonalization with overlap
     ethr =  1.84E-03,  avg # of iterations =  4.0

     negative rho (up, down):  1.728E-04 0.000E+00

     total cpu time spent up to now is       71.3 secs

     total energy              =    -184.61117612 Ry
     Harris-Foulkes estimate   =    -185.53597177 Ry
     estimated scf accuracy    <       3.03886455 Ry

     iteration #  3     ecut=    35.00 Ry     beta= 0.70
     Davidson diagonalization with overlap
     ethr =  1.84E-03,  avg # of iterations =  5.0

     negative rho (up, down):  1.602E-04 0.000E+00

     total cpu time spent up to now is       71.5 secs

     total energy              =    -185.06497433 Ry
     Harris-Foulkes estimate   =    -185.07816449 Ry
     estimated scf accuracy    <       0.05599848 Ry

     iteration #  4     ecut=    35.00 Ry     beta= 0.70
     Davidson diagonalization with overlap
     ethr =  2.15E-04,  avg # of iterations =  4.0

     negative rho (up, down):  1.665E-04 0.000E+00

     total cpu time spent up to now is       71.7 secs

     total energy              =    -185.07318954 Ry
     Harris-Foulkes estimate   =    -185.07436133 Ry
     estimated scf accuracy    <       0.00329038 Ry

     iteration #  5     ecut=    35.00 Ry     beta= 0.70
     Davidson diagonalization with overlap
     ethr =  1.27E-05,  avg # of iterations =  3.0

     negative rho (up, down):  1.754E-04 0.000E+00

     total cpu time spent up to now is       71.9 secs

     total energy              =    -185.07373492 Ry
     Harris-Foulkes estimate   =    -185.07370217 Ry
     estimated scf accuracy    <       0.00017565 Ry

     iteration #  6     ecut=    35.00 Ry     beta= 0.70
     Davidson diagonalization with overlap
     ethr =  6.76E-07,  avg # of iterations =  4.0

     negative rho (up, down):  1.738E-04 0.000E+00

     total cpu time spent up to now is       72.1 secs

     total energy              =    -185.07378457 Ry
     Harris-Foulkes estimate   =    -185.07385931 Ry
     estimated scf accuracy    <       0.00030629 Ry

     iteration #  7     ecut=    35.00 Ry     beta= 0.70
     Davidson diagonalization with overlap
     ethr =  6.76E-07,  avg # of iterations =  3.0

     negative rho (up, down):  1.730E-04 0.000E+00

     total cpu time spent up to now is       72.3 secs

     total energy              =    -185.07378163 Ry
     Harris-Foulkes estimate   =    -185.07385098 Ry
     estimated scf accuracy    <       0.00033155 Ry

     iteration #  8     ecut=    35.00 Ry     beta= 0.70
     Davidson diagonalization with overlap
     ethr =  6.76E-07,  avg # of iterations =  3.0

     negative rho (up, down):  1.734E-04 0.000E+00

     total cpu time spent up to now is       72.4 secs

     End of self-consistent calculation

          k = 0.0000 0.0000 0.0000 (  2389 PWs)   bands (ev):

   -62.3171 -36.6277 -36.6211 -36.0078 -16.4751 -14.8009  -7.5261  -5.9333
    -5.9256  -4.5497  -4.5481  -3.0465  -0.8747

     highest occupied level (ev):    -0.8747

!    total energy              =    -185.07380961 Ry
     Harris-Foulkes estimate   =    -185.07381513 Ry
     estimated scf accuracy    <       0.00000675 Ry

     The total energy is the sum of the following terms:

     one-electron contribution =    -942.72973965 Ry
     hartree contribution      =     470.47784939 Ry
     xc contribution           =     -32.62460295 Ry
     ewald contribution        =     319.80268360 Ry

     convergence has been achieved in   8 iterations

     negative rho (up, down):  1.734E-04 0.000E+00

     Forces acting on atoms (cartesian axes, Ry/au):

     atom    1 type  1   force =     0.00009372   -0.00005411   -0.00000000
     atom    2 type  2   force =    -0.00004686    0.00002705   -0.00007071
     atom    3 type  2   force =    -0.00004686    0.00002705    0.00007071

     Total force =     0.000166     Total SCF correction =     0.003407
     SCF correction compared to forces is large: reduce conv_thr to get better values


     Computing stress (Cartesian axis) and pressure


     negative rho (up, down):  1.734E-04 0.000E+00
          total   stress  (Ry/bohr**3)                   (kbar)     P=        0.70
   0.00000939   0.00000088  -0.00000000            1.38        0.13       -0.00
   0.00000088   0.00001041  -0.00000000            0.13        1.53       -0.00
  -0.00000000  -0.00000000  -0.00000546           -0.00       -0.00       -0.80


     Writing output data file ./pwscf.save/

     init_run     :      2.41s CPU      2.44s WALL (       2 calls)
     electrons    :     44.03s CPU     42.67s WALL (      11 calls)
     update_pot   :      9.88s CPU     10.00s WALL (       9 calls)
     forces       :      5.68s CPU      5.83s WALL (      11 calls)
     stress       :     13.03s CPU     12.66s WALL (      11 calls)

     Called by init_run:
     wfcinit      :      0.03s CPU      0.03s WALL (       2 calls)
     potinit      :      0.71s CPU      0.72s WALL (       2 calls)
     hinit0       :      1.58s CPU      1.58s WALL (       2 calls)

     Called by electrons:
     c_bands      :      8.87s CPU      8.60s WALL (     232 calls)
     sum_band     :     17.86s CPU     12.62s WALL (     232 calls)
     v_of_rho     :      6.68s CPU      7.54s WALL (     243 calls)
     newd         :     10.34s CPU     12.84s WALL (     243 calls)
     mix_rho      :      0.87s CPU      1.76s WALL (     232 calls)

     Called by c_bands:
     init_us_2    :      0.30s CPU      0.31s WALL (     466 calls)
     regterg      :      7.94s CPU      7.66s WALL (     232 calls)

     Called by sum_band:
     sum_band:bec :      0.00s CPU      0.00s WALL (     232 calls)
     addusdens    :     16.15s CPU     10.89s WALL (     232 calls)

     Called by *egterg:
     h_psi        :      6.63s CPU      6.56s WALL (    1168 calls)
     s_psi        :      0.26s CPU      0.13s WALL (    1168 calls)
     g_psi        :      0.05s CPU      0.05s WALL (     934 calls)
     rdiaghg      :      0.23s CPU      0.23s WALL (    1157 calls)

     Called by h_psi:
     h_psi:calbec :      0.25s CPU      0.26s WALL (    1168 calls)
     vloc_psi     :      6.03s CPU      6.10s WALL (    1168 calls)
     add_vuspsi   :      0.32s CPU      0.17s WALL (    1168 calls)

     General routines
     calbec       :      0.32s CPU      0.33s WALL (    1455 calls)
     fft          :      2.49s CPU      2.52s WALL (    2416 calls)
     ffts         :      0.24s CPU      0.24s WALL (     232 calls)
     fftw         :      6.09s CPU      6.15s WALL (   12152 calls)


     PWSCF        :   1m15.63s CPU   1m14.30s WALL


   This run was terminated on:  17:35: 2  23Sep2020            

=------------------------------------------------------------------------------=
   JOB DONE.
=------------------------------------------------------------------------------=
