
     Program PWSCF v.6.5 starts on 26Sep2020 at 16:46:24 

     This program is part of the open-source Quantum ESPRESSO suite
     for quantum simulation of materials; please cite
         "P. Giannozzi et al., J. Phys.:Condens. Matter 21 395502 (2009);
         "P. Giannozzi et al., J. Phys.:Condens. Matter 29 465901 (2017);
          URL http://www.quantum-espresso.org", 
     in publications or presentations arising from this work. More details at
     http://www.quantum-espresso.org/quote

     Serial version
     Waiting for input...
     Reading input from standard input

     Current dimensions of program PWSCF are:
     Max number of different atomic species (ntypx) = 10
     Max number of k-points (npk) =  40000
     Max angular momentum in pseudopotentials (lmaxx) =  3

     gamma-point specific algorithms are used
     Message from routine setup:
     using ibrav=0 with symmetry is DISCOURAGED, use correct ibrav instead

     G-vector sticks info
     --------------------
     sticks:   dense  smooth     PW     G-vecs:    dense   smooth      PW
     Sum         349     349     85                33263    33263    4163



     bravais-lattice index     =            0
     lattice parameter (alat)  =       6.0288  a.u.
     unit-cell volume          =    1189.6679 (a.u.)^3
     number of atoms/cell      =            3
     number of atomic types    =            2
     number of electrons       =        26.00
     number of Kohn-Sham states=           13
     kinetic-energy cutoff     =      35.0000  Ry
     charge density cutoff     =     140.0000  Ry
     convergence threshold     =      5.0E-03
     mixing beta               =       0.7000
     number of iterations used =            8  plain     mixing
     Exchange-correlation=  SLA  PW   PBX  PBC
                           (   1   4   3   4   0   0   0)
     nstep                     =           50


     celldm(1)=   6.028831  celldm(2)=   0.000000  celldm(3)=   0.000000
     celldm(4)=   0.000000  celldm(5)=   0.000000  celldm(6)=   0.000000

     crystal axes: (cart. coord. in units of alat)
               a(1) = (   1.000000   0.000000   0.000000 )  
               a(2) = (  -0.500000   0.866025   0.000000 )  
               a(3) = (   0.000000   0.000000   6.268964 )  

     reciprocal axes: (cart. coord. in units 2 pi/alat)
               b(1) = (  1.000000  0.577350 -0.000000 )  
               b(2) = (  0.000000  1.154701  0.000000 )  
               b(3) = (  0.000000 -0.000000  0.159516 )  


     PseudoPot. # 1 for Mo read from file:
     ../../pseudos/Mo_ONCV_PBE-1.0.oncvpsp.upf
     MD5 check sum: 1b5d28e075c9ccadda658a603575cd1f
     Pseudo is Norm-conserving, Zval = 14.0
     Generated using ONCVPSP code by D. R. Hamann
     Using radial grid of 1526 points,  6 beta functions with: 
                l(1) =   0
                l(2) =   0
                l(3) =   1
                l(4) =   1
                l(5) =   2
                l(6) =   2

     PseudoPot. # 2 for S  read from file:
     ../../pseudos/s_pbe_v1.4.uspp.F.UPF
     MD5 check sum: 88d86576ff6df21479756cfb9bdac1df
     Pseudo is Ultrasoft + core correction, Zval =  6.0
     Generated by new atomic code, or converted to UPF format
     Using radial grid of  907 points,  6 beta functions with: 
                l(1) =   0
                l(2) =   0
                l(3) =   1
                l(4) =   1
                l(5) =   2
                l(6) =   2
     Q(r) pseudized with  8 coefficients,  rinner =    1.300   1.300   1.300
                                                       1.300   1.300

     atomic species   valence    mass     pseudopotential
        Mo            14.00    95.95000     Mo( 1.00)
        S              6.00    32.06000     S ( 1.00)

      4 Sym. Ops. (no inversion) found



   Cartesian axes

     site n.     atom                  positions (alat units)
         1           Mo  tau(   1) = (  -0.0000050   0.5773532   3.1344818  )
         2           S   tau(   2) = (   0.5000050   0.2886722   2.6439981  )
         3           S   tau(   3) = (   0.5000050   0.2886722   3.6249655  )

     number of k points=     1
                       cart. coord. in units 2pi/alat
        k(    1) = (   0.0000000   0.0000000   0.0000000), wk =   2.0000000

     Dense  grid:    16632 G-vectors     FFT dimensions: (  24,  24, 144)

     Estimated max dynamical RAM per process >      69.91 MB

     Initial potential from superposition of free atoms

     starting charge   25.99894, renormalised to   26.00000

     negative rho (up, down):  3.060E-04 0.000E+00
     Starting wfcs are   18 randomized atomic wfcs

     total cpu time spent up to now is        1.4 secs

     Self-consistent Calculation

     iteration #  1     ecut=    35.00 Ry     beta= 0.70
     Davidson diagonalization with overlap
     ethr =  1.00E-02,  avg # of iterations =  2.0

     negative rho (up, down):  1.478E-04 0.000E+00

     total cpu time spent up to now is        1.5 secs

     total energy              =    -184.02946154 Ry
     Harris-Foulkes estimate   =    -185.16418919 Ry
     estimated scf accuracy    <       1.43885375 Ry

     iteration #  2     ecut=    35.00 Ry     beta= 0.70
     Davidson diagonalization with overlap
     ethr =  5.53E-03,  avg # of iterations =  6.0

     negative rho (up, down):  5.278E-06 0.000E+00

     total cpu time spent up to now is        1.7 secs

     total energy              =    -182.76898828 Ry
     Harris-Foulkes estimate   =    -187.96288294 Ry
     estimated scf accuracy    <      22.96424084 Ry

     iteration #  3     ecut=    35.00 Ry     beta= 0.70
     Davidson diagonalization with overlap
     ethr =  5.53E-03,  avg # of iterations =  5.0

     negative rho (up, down):  1.157E-05 0.000E+00

     total cpu time spent up to now is        1.9 secs

     total energy              =    -184.90809874 Ry
     Harris-Foulkes estimate   =    -185.08509237 Ry
     estimated scf accuracy    <       0.53552387 Ry

     iteration #  4     ecut=    35.00 Ry     beta= 0.70
     Davidson diagonalization with overlap
     ethr =  2.06E-03,  avg # of iterations =  3.0

     negative rho (up, down):  1.710E-05 0.000E+00

     total cpu time spent up to now is        2.1 secs

     total energy              =    -184.94518950 Ry
     Harris-Foulkes estimate   =    -184.97586818 Ry
     estimated scf accuracy    <       0.06237272 Ry

     iteration #  5     ecut=    35.00 Ry     beta= 0.70
     Davidson diagonalization with overlap
     ethr =  2.40E-04,  avg # of iterations =  5.0

     negative rho (up, down):  2.412E-05 0.000E+00

     total cpu time spent up to now is        2.2 secs

     total energy              =    -184.91352152 Ry
     Harris-Foulkes estimate   =    -185.04064243 Ry
     estimated scf accuracy    <       0.88932668 Ry

     iteration #  6     ecut=    35.00 Ry     beta= 0.70
     Davidson diagonalization with overlap
     ethr =  2.40E-04,  avg # of iterations =  5.0

     negative rho (up, down):  4.907E-05 0.000E+00

     total cpu time spent up to now is        2.4 secs

     total energy              =    -184.97185869 Ry
     Harris-Foulkes estimate   =    -184.97377394 Ry
     estimated scf accuracy    <       0.00654923 Ry

     iteration #  7     ecut=    35.00 Ry     beta= 0.70
     Davidson diagonalization with overlap
     ethr =  2.52E-05,  avg # of iterations =  2.0

     negative rho (up, down):  1.878E-04 0.000E+00

     total cpu time spent up to now is        2.6 secs

     End of self-consistent calculation

          k = 0.0000 0.0000 0.0000 (  2082 PWs)   bands (ev):

   -61.2969 -35.4047 -35.4046 -35.3755 -16.4610 -15.3498  -7.4536  -4.3604
    -4.3603  -3.9520  -3.4628  -3.4623  -1.5098

     highest occupied level (ev):    -1.5098

!    total energy              =    -184.97224674 Ry
     Harris-Foulkes estimate   =    -184.97268396 Ry
     estimated scf accuracy    <       0.00075600 Ry

     The total energy is the sum of the following terms:

     one-electron contribution =   -1112.26089949 Ry
     hartree contribution      =     556.22471588 Ry
     xc contribution           =     -32.73561539 Ry
     ewald contribution        =     403.79955226 Ry

     convergence has been achieved in   7 iterations

     negative rho (up, down):  1.878E-04 0.000E+00

     Forces acting on atoms (cartesian axes, Ry/au):

     atom    1 type  1   force =    -0.00007228    0.00004173    0.00000000
     atom    2 type  2   force =     0.00003614   -0.00002087    0.10833370
     atom    3 type  2   force =     0.00003614   -0.00002087   -0.10833370

     Total force =     0.153207     Total SCF correction =     0.029757
     SCF correction compared to forces is large: reduce conv_thr to get better values


     Computing stress (Cartesian axis) and pressure


     negative rho (up, down):  1.878E-04 0.000E+00
          total   stress  (Ry/bohr**3)                   (kbar)     P=       35.72
   0.00063033  -0.00000027   0.00000000           92.72       -0.04        0.00
  -0.00000027   0.00063001   0.00000000           -0.04       92.68        0.00
  -0.00000000  -0.00000000  -0.00053187           -0.00       -0.00      -78.24


     BFGS Geometry Optimization

     number of scf cycles    =   1
     number of bfgs steps    =   0

     enthalpy new            =    -184.9722467389 Ry

     new trust radius        =       0.1087054281 bohr
     new conv_thr            =       0.0050000000 Ry

     new unit-cell volume =   1211.12681 a.u.^3 (   179.47048 Ang^3 )
     density =      1.48104 g/cm^3

CELL_PARAMETERS (angstrom)
   3.240593901  -0.000021795  -0.000000000
  -1.620315825   2.806425744  -0.000000000
   0.000000000   0.000000000  19.734064045

ATOMIC_POSITIONS (angstrom)
Mo           -0.0000676393        1.8709750178        9.8670320225
S             1.6203262883        0.9354401474        8.3796043031
S             1.6203262883        0.9354401474       11.3544597420



     Writing output data file ./pwscf.save/
     NEW-OLD atomic charge density approx. for the potential

     negative rho (up, down):  2.182E-04 0.000E+00
     extrapolated charge   26.46065, renormalised to   26.00000

     total cpu time spent up to now is        5.4 secs

     Self-consistent Calculation

     iteration #  1     ecut=    35.00 Ry     beta= 0.70
     Davidson diagonalization with overlap
     ethr =  1.00E-06,  avg # of iterations = 14.0

     total cpu time spent up to now is        5.7 secs

     total energy              =     -64.45689563 Ry
     Harris-Foulkes estimate   =    -169.46940462 Ry
     estimated scf accuracy    <     129.84235486 Ry

     iteration #  2     ecut=    35.00 Ry     beta= 0.70
     Davidson diagonalization with overlap
     ethr =  1.00E-02,  avg # of iterations = 17.0

     total cpu time spent up to now is        5.9 secs

     total energy              =    -198.96344245 Ry
     Harris-Foulkes estimate   =    -273.49148159 Ry
     estimated scf accuracy    <     133.32308187 Ry

     iteration #  3     ecut=    35.00 Ry     beta= 0.70
     Davidson diagonalization with overlap
     ethr =  1.00E-02,  avg # of iterations = 11.0

     total cpu time spent up to now is        6.2 secs

     total energy              =    -198.99847100 Ry
     Harris-Foulkes estimate   =    -211.00274701 Ry
     estimated scf accuracy    <      32.21190313 Ry

     iteration #  4     ecut=    35.00 Ry     beta= 0.70
     Davidson diagonalization with overlap
     ethr =  1.00E-02,  avg # of iterations =  8.0

     total cpu time spent up to now is        6.4 secs

     total energy              =    -193.16879285 Ry
     Harris-Foulkes estimate   =    -200.99244519 Ry
     estimated scf accuracy    <      24.76153476 Ry

     iteration #  5     ecut=    35.00 Ry     beta= 0.70
     Davidson diagonalization with overlap
     ethr =  1.00E-02,  avg # of iterations =  3.0

     total cpu time spent up to now is        6.6 secs

     total energy              =    -189.34985566 Ry
     Harris-Foulkes estimate   =    -193.44770375 Ry
     estimated scf accuracy    <      13.52171421 Ry

     iteration #  6     ecut=    35.00 Ry     beta= 0.70
     Davidson diagonalization with overlap
     ethr =  1.00E-02,  avg # of iterations =  4.0

     total cpu time spent up to now is        6.7 secs

     total energy              =    -189.11374375 Ry
     Harris-Foulkes estimate   =    -189.65995762 Ry
     estimated scf accuracy    <       8.07738603 Ry

     iteration #  7     ecut=    35.00 Ry     beta= 0.70
     Davidson diagonalization with overlap
     ethr =  1.00E-02,  avg # of iterations =  1.0

     total cpu time spent up to now is        6.9 secs

     total energy              =    -186.03144979 Ry
     Harris-Foulkes estimate   =    -189.16219276 Ry
     estimated scf accuracy    <       7.24711306 Ry

     iteration #  8     ecut=    35.00 Ry     beta= 0.70
     Davidson diagonalization with overlap
     ethr =  1.00E-02,  avg # of iterations =  4.0

     total cpu time spent up to now is        7.1 secs

     total energy              =    -187.46977546 Ry
     Harris-Foulkes estimate   =    -187.76635640 Ry
     estimated scf accuracy    <      12.75505456 Ry

     iteration #  9     ecut=    35.00 Ry     beta= 0.70
     Davidson diagonalization with overlap
     ethr =  1.00E-02,  avg # of iterations =  1.0

     total cpu time spent up to now is        7.3 secs

     total energy              =    -187.19460851 Ry
     Harris-Foulkes estimate   =    -187.51236434 Ry
     estimated scf accuracy    <      11.00047474 Ry

     iteration # 10     ecut=    35.00 Ry     beta= 0.70
     Davidson diagonalization with overlap
     ethr =  1.00E-02,  avg # of iterations =  1.0

     negative rho (up, down):  1.626E-04 0.000E+00

     total cpu time spent up to now is        7.5 secs

     total energy              =    -183.78081695 Ry
     Harris-Foulkes estimate   =    -187.22464921 Ry
     estimated scf accuracy    <       9.96146753 Ry

     iteration # 11     ecut=    35.00 Ry     beta= 0.70
     Davidson diagonalization with overlap
     ethr =  1.00E-02,  avg # of iterations =  5.0

     negative rho (up, down):  2.347E-05 0.000E+00

     total cpu time spent up to now is        7.6 secs

     total energy              =    -184.97687082 Ry
     Harris-Foulkes estimate   =    -185.48562491 Ry
     estimated scf accuracy    <       3.91015515 Ry

     iteration # 12     ecut=    35.00 Ry     beta= 0.70
     Davidson diagonalization with overlap
     ethr =  1.00E-02,  avg # of iterations =  3.0

     total cpu time spent up to now is        7.8 secs

     total energy              =    -185.84547445 Ry
     Harris-Foulkes estimate   =    -185.39179156 Ry
     estimated scf accuracy    <       2.38468548 Ry

     iteration # 13     ecut=    35.00 Ry     beta= 0.70
     Davidson diagonalization with overlap
     ethr =  9.17E-03,  avg # of iterations =  3.0

     total cpu time spent up to now is        8.0 secs

     total energy              =    -186.93911125 Ry
     Harris-Foulkes estimate   =    -187.72815711 Ry
     estimated scf accuracy    <      37.31539800 Ry

     iteration # 14     ecut=    35.00 Ry     beta= 0.70
     Davidson diagonalization with overlap
     ethr =  9.17E-03,  avg # of iterations =  1.0

     negative rho (up, down):  1.978E-02 0.000E+00

     total cpu time spent up to now is        8.2 secs

     total energy              =    -184.83974452 Ry
     Harris-Foulkes estimate   =    -186.96606866 Ry
     estimated scf accuracy    <      34.54790420 Ry

     iteration # 15     ecut=    35.00 Ry     beta= 0.70
     Davidson diagonalization with overlap
     ethr =  9.17E-03,  avg # of iterations =  5.0

     negative rho (up, down):  1.971E-03 0.000E+00

     total cpu time spent up to now is        8.4 secs

     total energy              =    -182.43657056 Ry
     Harris-Foulkes estimate   =    -185.56199190 Ry
     estimated scf accuracy    <       7.10343321 Ry

     iteration # 16     ecut=    35.00 Ry     beta= 0.70
     Davidson diagonalization with overlap
     ethr =  9.17E-03,  avg # of iterations =  5.0

     total cpu time spent up to now is        8.6 secs

     total energy              =    -185.86282609 Ry
     Harris-Foulkes estimate   =    -189.07640433 Ry
     estimated scf accuracy    <      34.00818548 Ry

     iteration # 17     ecut=    35.00 Ry     beta= 0.70
     Davidson diagonalization with overlap
     ethr =  9.17E-03,  avg # of iterations =  3.0

     total cpu time spent up to now is        8.8 secs

     total energy              =    -183.11959207 Ry
     Harris-Foulkes estimate   =    -186.22991890 Ry
     estimated scf accuracy    <      16.92077622 Ry

     iteration # 18     ecut=    35.00 Ry     beta= 0.70
     Davidson diagonalization with overlap
     ethr =  9.17E-03,  avg # of iterations =  4.0

     negative rho (up, down):  3.204E-03 0.000E+00

     total cpu time spent up to now is        9.0 secs

     total energy              =    -184.92185242 Ry
     Harris-Foulkes estimate   =    -185.44090133 Ry
     estimated scf accuracy    <       2.03624773 Ry

     iteration # 19     ecut=    35.00 Ry     beta= 0.70
     Davidson diagonalization with overlap
     ethr =  7.83E-03,  avg # of iterations =  2.0

     negative rho (up, down):  1.015E-03 0.000E+00

     total cpu time spent up to now is        9.1 secs

     total energy              =    -185.07179039 Ry
     Harris-Foulkes estimate   =    -185.08155610 Ry
     estimated scf accuracy    <       0.28096654 Ry

     iteration # 20     ecut=    35.00 Ry     beta= 0.70
     Davidson diagonalization with overlap
     ethr =  1.08E-03,  avg # of iterations =  4.0

     total cpu time spent up to now is        9.3 secs

     total energy              =    -185.01820477 Ry
     Harris-Foulkes estimate   =    -185.11370544 Ry
     estimated scf accuracy    <       0.24247932 Ry

     iteration # 21     ecut=    35.00 Ry     beta= 0.70
     Davidson diagonalization with overlap
     ethr =  9.33E-04,  avg # of iterations =  2.0

     negative rho (up, down):  2.458E-08 0.000E+00

     total cpu time spent up to now is        9.5 secs

     total energy              =    -185.03687668 Ry
     Harris-Foulkes estimate   =    -185.04291821 Ry
     estimated scf accuracy    <       0.07604962 Ry

     iteration # 22     ecut=    35.00 Ry     beta= 0.70
     Davidson diagonalization with overlap
     ethr =  2.92E-04,  avg # of iterations =  3.0

     negative rho (up, down):  3.014E-05 0.000E+00

     total cpu time spent up to now is        9.7 secs

     total energy              =    -185.01518440 Ry
     Harris-Foulkes estimate   =    -185.04542958 Ry
     estimated scf accuracy    <       0.13839318 Ry

     iteration # 23     ecut=    35.00 Ry     beta= 0.70
     Davidson diagonalization with overlap
     ethr =  2.92E-04,  avg # of iterations =  4.0

     negative rho (up, down):  7.102E-03 0.000E+00

     total cpu time spent up to now is        9.9 secs

     total energy              =    -185.01904078 Ry
     Harris-Foulkes estimate   =    -185.02931703 Ry
     estimated scf accuracy    <       0.03606547 Ry

     iteration # 24     ecut=    35.00 Ry     beta= 0.70
     Davidson diagonalization with overlap
     ethr =  1.39E-04,  avg # of iterations =  4.0

     negative rho (up, down):  2.044E-03 0.000E+00

     total cpu time spent up to now is       10.1 secs

     total energy              =    -185.01520576 Ry
     Harris-Foulkes estimate   =    -185.03385025 Ry
     estimated scf accuracy    <       0.14645124 Ry

     iteration # 25     ecut=    35.00 Ry     beta= 0.70
     Davidson diagonalization with overlap
     ethr =  1.39E-04,  avg # of iterations =  3.0

     negative rho (up, down):  1.124E-04 0.000E+00

     total cpu time spent up to now is       10.2 secs

     total energy              =    -185.01692067 Ry
     Harris-Foulkes estimate   =    -185.02154807 Ry
     estimated scf accuracy    <       0.02326944 Ry

     iteration # 26     ecut=    35.00 Ry     beta= 0.70
     Davidson diagonalization with overlap
     ethr =  8.95E-05,  avg # of iterations =  3.0

     negative rho (up, down):  1.834E-04 0.000E+00

     total cpu time spent up to now is       10.4 secs

     End of self-consistent calculation

          k = 0.0000 0.0000 0.0000 (  2082 PWs)   bands (ev):

   -61.3127 -35.5033 -35.4963 -35.3129 -16.3988 -15.0633  -7.4593  -4.7885
    -4.7845  -3.7220  -3.7173  -3.5025  -1.0541

     highest occupied level (ev):    -1.0541

!    total energy              =    -185.01933363 Ry
     Harris-Foulkes estimate   =    -185.01968771 Ry
     estimated scf accuracy    <       0.00062089 Ry

     The total energy is the sum of the following terms:

     one-electron contribution =   -1079.16976013 Ry
     hartree contribution      =     539.22279623 Ry
     xc contribution           =     -32.76670221 Ry
     ewald contribution        =     387.69433248 Ry

     convergence has been achieved in  26 iterations

     negative rho (up, down):  1.834E-04 0.000E+00

     Forces acting on atoms (cartesian axes, Ry/au):

     atom    1 type  1   force =    -0.00044254    0.00025550   -0.00000000
     atom    2 type  2   force =     0.00022127   -0.00012775    0.05927645
     atom    3 type  2   force =     0.00022127   -0.00012775   -0.05927645

     Total force =     0.083832     Total SCF correction =     0.067274
     SCF correction compared to forces is large: reduce conv_thr to get better values


     Computing stress (Cartesian axis) and pressure


     negative rho (up, down):  1.834E-04 0.000E+00
          total   stress  (Ry/bohr**3)                   (kbar)     P=       32.82
   0.00050210  -0.00000744   0.00000000           73.86       -1.09        0.00
  -0.00000744   0.00049352   0.00000000           -1.09       72.60        0.00
  -0.00000000  -0.00000000  -0.00032636           -0.00       -0.00      -48.01


     number of scf cycles    =   2
     number of bfgs steps    =   1

     enthalpy old            =    -184.9722467389 Ry
     enthalpy new            =    -185.0193336292 Ry

     CASE: enthalpy_new < enthalpy_old

     new trust radius        =       0.1619698088 bohr
     new conv_thr            =       0.0029638225 Ry

     new unit-cell volume =   1247.10089 a.u.^3 (   184.80128 Ang^3 )
     density =      1.43832 g/cm^3

CELL_PARAMETERS (angstrom)
   3.315997265  -0.001085818  -0.000000000
  -1.658938978   2.871194962  -0.000000000
   0.000000000   0.000000000  19.413789216

ATOMIC_POSITIONS (angstrom)
Mo           -0.0011283331        1.9140575395        9.7068946081
S             1.6579441936        0.9561915695        8.3013493738
S             1.6579441936        0.9561915695       11.1124398424



     Writing output data file ./pwscf.save/
     NEW-OLD atomic charge density approx. for the potential

     negative rho (up, down):  2.572E-04 0.000E+00
     extrapolated charge   26.74997, renormalised to   26.00000

     total cpu time spent up to now is       13.3 secs

     Self-consistent Calculation

     iteration #  1     ecut=    35.00 Ry     beta= 0.70
     Davidson diagonalization with overlap
     ethr =  1.00E-06,  avg # of iterations = 15.0

     total cpu time spent up to now is       13.6 secs

     total energy              =      31.78942751 Ry
     Harris-Foulkes estimate   =    -164.82581546 Ry
     estimated scf accuracy    <     233.02042407 Ry

     iteration #  2     ecut=    35.00 Ry     beta= 0.70
     Davidson diagonalization with overlap
     c_bands:  2 eigenvalues not converged
     ethr =  1.00E-02,  avg # of iterations = 20.0

     total cpu time spent up to now is       13.9 secs

     total energy              =    -218.20900811 Ry
     Harris-Foulkes estimate   =    -330.93558992 Ry
     estimated scf accuracy    <     192.07463954 Ry

     iteration #  3     ecut=    35.00 Ry     beta= 0.70
     Davidson diagonalization with overlap
     ethr =  1.00E-02,  avg # of iterations = 11.0

     total cpu time spent up to now is       14.1 secs

     total energy              =    -210.33394160 Ry
     Harris-Foulkes estimate   =    -229.47338577 Ry
     estimated scf accuracy    <      54.23753088 Ry

     iteration #  4     ecut=    35.00 Ry     beta= 0.70
     Davidson diagonalization with overlap
     ethr =  1.00E-02,  avg # of iterations =  7.0

     total cpu time spent up to now is       14.3 secs

     total energy              =    -198.91115493 Ry
     Harris-Foulkes estimate   =    -211.94482062 Ry
     estimated scf accuracy    <      34.14852260 Ry

     iteration #  5     ecut=    35.00 Ry     beta= 0.70
     Davidson diagonalization with overlap
     ethr =  1.00E-02,  avg # of iterations =  7.0

     total cpu time spent up to now is       14.5 secs

     total energy              =    -196.74769224 Ry
     Harris-Foulkes estimate   =    -199.33890413 Ry
     estimated scf accuracy    <      18.01984742 Ry

     iteration #  6     ecut=    35.00 Ry     beta= 0.70
     Davidson diagonalization with overlap
     ethr =  1.00E-02,  avg # of iterations =  1.0

     total cpu time spent up to now is       14.7 secs

     total energy              =    -189.99027512 Ry
     Harris-Foulkes estimate   =    -196.80343565 Ry
     estimated scf accuracy    <      14.98164648 Ry

     iteration #  7     ecut=    35.00 Ry     beta= 0.70
     Davidson diagonalization with overlap
     ethr =  1.00E-02,  avg # of iterations =  6.0

     total cpu time spent up to now is       14.9 secs

     total energy              =    -191.78459898 Ry
     Harris-Foulkes estimate   =    -191.20891991 Ry
     estimated scf accuracy    <      14.83597868 Ry

     iteration #  8     ecut=    35.00 Ry     beta= 0.70
     Davidson diagonalization with overlap
     ethr =  1.00E-02,  avg # of iterations =  1.0

     total cpu time spent up to now is       15.1 secs

     total energy              =    -191.75453983 Ry
     Harris-Foulkes estimate   =    -191.81196308 Ry
     estimated scf accuracy    <      15.07400150 Ry

     iteration #  9     ecut=    35.00 Ry     beta= 0.70
     Davidson diagonalization with overlap
     ethr =  1.00E-02,  avg # of iterations =  1.0

     total cpu time spent up to now is       15.2 secs

     total energy              =    -191.68317710 Ry
     Harris-Foulkes estimate   =    -191.77903631 Ry
     estimated scf accuracy    <      15.82245266 Ry

     iteration # 10     ecut=    35.00 Ry     beta= 0.70
     Davidson diagonalization with overlap
     ethr =  1.00E-02,  avg # of iterations =  1.0

     negative rho (up, down):  7.518E-01 0.000E+00

     total cpu time spent up to now is       15.4 secs

     total energy              =    -213.53542085 Ry
     Harris-Foulkes estimate   =    -191.69171057 Ry
     estimated scf accuracy    <      15.77326957 Ry

     iteration # 11     ecut=    35.00 Ry     beta= 0.70
     Davidson diagonalization with overlap
     ethr =  1.00E-02,  avg # of iterations = 10.0

     negative rho (up, down):  1.319E+00 0.000E+00

     total cpu time spent up to now is       15.7 secs

     total energy              =    -313.86235253 Ry
     Harris-Foulkes estimate   =    -282.04019771 Ry
     estimated scf accuracy    <     558.16907395 Ry

     iteration # 12     ecut=    35.00 Ry     beta= 0.70
     Davidson diagonalization with overlap
     ethr =  1.00E-02,  avg # of iterations =  3.0

     negative rho (up, down):  8.037E-01 0.000E+00

     total cpu time spent up to now is       15.9 secs

     total energy              =    -286.36890169 Ry
     Harris-Foulkes estimate   =    -314.35400307 Ry
     estimated scf accuracy    <     606.57389350 Ry

     iteration # 13     ecut=    35.00 Ry     beta= 0.70
     Davidson diagonalization with overlap
     ethr =  1.00E-02,  avg # of iterations =  3.0

     negative rho (up, down):  1.010E+00 0.000E+00

     total cpu time spent up to now is       16.0 secs

     total energy              =    -295.10878917 Ry
     Harris-Foulkes estimate   =    -286.73348101 Ry
     estimated scf accuracy    <     564.47544951 Ry

     iteration # 14     ecut=    35.00 Ry     beta= 0.70
     Davidson diagonalization with overlap
     ethr =  1.00E-02,  avg # of iterations =  1.0

     negative rho (up, down):  2.899E+00 0.000E+00

     total cpu time spent up to now is       16.2 secs

     total energy              =    -360.78698411 Ry
     Harris-Foulkes estimate   =    -295.14062334 Ry
     estimated scf accuracy    <     572.55350479 Ry

     iteration # 15     ecut=    35.00 Ry     beta= 0.70
     Davidson diagonalization with overlap
     ethr =  1.00E-02,  avg # of iterations =  7.0

     negative rho (up, down):  1.689E+00 0.000E+00

     total cpu time spent up to now is       16.4 secs

     total energy              =    -115.10973349 Ry
     Harris-Foulkes estimate   =    -363.39514084 Ry
     estimated scf accuracy    <     712.77977941 Ry

     iteration # 16     ecut=    35.00 Ry     beta= 0.70
     Davidson diagonalization with overlap
     ethr =  1.00E-02,  avg # of iterations = 12.0

     negative rho (up, down):  5.622E-01 0.000E+00

     total cpu time spent up to now is       16.7 secs

     total energy              =    -169.89489890 Ry
     Harris-Foulkes estimate   =    -228.28154337 Ry
     estimated scf accuracy    <     342.28927508 Ry

     iteration # 17     ecut=    35.00 Ry     beta= 0.70
     Davidson diagonalization with overlap
     ethr =  1.00E-02,  avg # of iterations =  8.0

     negative rho (up, down):  1.528E-01 0.000E+00

     total cpu time spent up to now is       16.9 secs

     total energy              =    -179.51532084 Ry
     Harris-Foulkes estimate   =    -188.72980278 Ry
     estimated scf accuracy    <      27.76783615 Ry

     iteration # 18     ecut=    35.00 Ry     beta= 0.70
     Davidson diagonalization with overlap
     ethr =  1.00E-02,  avg # of iterations =  5.0

     negative rho (up, down):  1.956E-01 0.000E+00

     total cpu time spent up to now is       17.1 secs

     total energy              =    -183.31869001 Ry
     Harris-Foulkes estimate   =    -188.79111929 Ry
     estimated scf accuracy    <      32.05752080 Ry

     iteration # 19     ecut=    35.00 Ry     beta= 0.70
     Davidson diagonalization with overlap
     ethr =  1.00E-02,  avg # of iterations =  5.0

     negative rho (up, down):  9.853E-02 0.000E+00

     total cpu time spent up to now is       17.3 secs

     total energy              =    -185.61389155 Ry
     Harris-Foulkes estimate   =    -185.87139148 Ry
     estimated scf accuracy    <       1.85370922 Ry

     iteration # 20     ecut=    35.00 Ry     beta= 0.70
     Davidson diagonalization with overlap
     ethr =  7.13E-03,  avg # of iterations =  1.0

     negative rho (up, down):  3.507E-03 0.000E+00

     total cpu time spent up to now is       17.5 secs

     total energy              =    -185.52761460 Ry
     Harris-Foulkes estimate   =    -185.69275429 Ry
     estimated scf accuracy    <       1.72920103 Ry

     iteration # 21     ecut=    35.00 Ry     beta= 0.70
     Davidson diagonalization with overlap
     ethr =  6.65E-03,  avg # of iterations =  1.0

     negative rho (up, down):  2.051E-02 0.000E+00

     total cpu time spent up to now is       17.7 secs

     total energy              =    -185.29073846 Ry
     Harris-Foulkes estimate   =    -185.57816187 Ry
     estimated scf accuracy    <       1.69301303 Ry

     iteration # 22     ecut=    35.00 Ry     beta= 0.70
     Davidson diagonalization with overlap
     ethr =  6.51E-03,  avg # of iterations =  1.0

     negative rho (up, down):  3.422E-03 0.000E+00

     total cpu time spent up to now is       17.8 secs

     total energy              =    -185.12874642 Ry
     Harris-Foulkes estimate   =    -185.33062893 Ry
     estimated scf accuracy    <       1.28068319 Ry

     iteration # 23     ecut=    35.00 Ry     beta= 0.70
     Davidson diagonalization with overlap
     ethr =  4.93E-03,  avg # of iterations =  3.0

     negative rho (up, down):  2.908E-03 0.000E+00

     total cpu time spent up to now is       18.0 secs

     total energy              =    -185.21842987 Ry
     Harris-Foulkes estimate   =    -185.33213168 Ry
     estimated scf accuracy    <       2.17648655 Ry

     iteration # 24     ecut=    35.00 Ry     beta= 0.70
     Davidson diagonalization with overlap
     ethr =  4.93E-03,  avg # of iterations =  1.0

     negative rho (up, down):  5.976E-03 0.000E+00

     total cpu time spent up to now is       18.2 secs

     total energy              =    -184.77480684 Ry
     Harris-Foulkes estimate   =    -185.23129871 Ry
     estimated scf accuracy    <       1.71707385 Ry

     iteration # 25     ecut=    35.00 Ry     beta= 0.70
     Davidson diagonalization with overlap
     ethr =  4.93E-03,  avg # of iterations =  3.0

     negative rho (up, down):  2.011E-02 0.000E+00

     total cpu time spent up to now is       18.4 secs

     total energy              =    -185.07949913 Ry
     Harris-Foulkes estimate   =    -185.12506706 Ry
     estimated scf accuracy    <       0.49644960 Ry

     iteration # 26     ecut=    35.00 Ry     beta= 0.70
     Davidson diagonalization with overlap
     ethr =  1.91E-03,  avg # of iterations =  2.0

     negative rho (up, down):  7.922E-04 0.000E+00

     total cpu time spent up to now is       18.6 secs

     total energy              =    -185.01626558 Ry
     Harris-Foulkes estimate   =    -185.11037133 Ry
     estimated scf accuracy    <       0.50193099 Ry

     iteration # 27     ecut=    35.00 Ry     beta= 0.70
     Davidson diagonalization with overlap
     ethr =  1.91E-03,  avg # of iterations =  2.0

     negative rho (up, down):  9.693E-06 0.000E+00

     total cpu time spent up to now is       18.7 secs

     total energy              =    -185.04120028 Ry
     Harris-Foulkes estimate   =    -185.04881417 Ry
     estimated scf accuracy    <       0.07174128 Ry

     iteration # 28     ecut=    35.00 Ry     beta= 0.70
     Davidson diagonalization with overlap
     ethr =  2.76E-04,  avg # of iterations =  4.0

     negative rho (up, down):  1.872E-04 0.000E+00

     total cpu time spent up to now is       18.9 secs

     total energy              =    -185.05323906 Ry
     Harris-Foulkes estimate   =    -185.05489240 Ry
     estimated scf accuracy    <       0.00824280 Ry

     iteration # 29     ecut=    35.00 Ry     beta= 0.70
     Davidson diagonalization with overlap
     ethr =  3.17E-05,  avg # of iterations =  3.0

     negative rho (up, down):  2.297E-04 0.000E+00

     total cpu time spent up to now is       19.1 secs

     End of self-consistent calculation

          k = 0.0000 0.0000 0.0000 (  2082 PWs)   bands (ev):

   -61.6791 -35.9528 -35.9453 -35.5580 -16.5906 -14.9290  -7.6762  -5.5372
    -5.5274  -4.2133  -4.2069  -3.1767  -0.7890

     highest occupied level (ev):    -0.7890

!    total energy              =    -185.05317603 Ry
     Harris-Foulkes estimate   =    -185.05445805 Ry
     estimated scf accuracy    <       0.00148448 Ry

     The total energy is the sum of the following terms:

     one-electron contribution =   -1030.66264600 Ry
     hartree contribution      =     514.67634109 Ry
     xc contribution           =     -32.78561756 Ry
     ewald contribution        =     363.71874644 Ry

     convergence has been achieved in  29 iterations

     negative rho (up, down):  2.297E-04 0.000E+00

     Forces acting on atoms (cartesian axes, Ry/au):

     atom    1 type  1   force =     0.00207980   -0.00120077   -0.00000000
     atom    2 type  2   force =    -0.00103990    0.00060039    0.00952540
     atom    3 type  2   force =    -0.00103990    0.00060039   -0.00952540

     Total force =     0.013788     Total SCF correction =     0.251836
     SCF correction compared to forces is large: reduce conv_thr to get better values


     Computing stress (Cartesian axis) and pressure


     negative rho (up, down):  2.297E-04 0.000E+00
          total   stress  (Ry/bohr**3)                   (kbar)     P=       26.18
   0.00030043  -0.00000353  -0.00000000           44.19       -0.52       -0.00
  -0.00000353   0.00029635  -0.00000000           -0.52       43.59       -0.00
  -0.00000000  -0.00000000  -0.00006291           -0.00       -0.00       -9.25


     number of scf cycles    =   3
     number of bfgs steps    =   2

     enthalpy old            =    -185.0193336292 Ry
     enthalpy new            =    -185.0531760252 Ry

     CASE: enthalpy_new < enthalpy_old

     new trust radius        =       0.1545486272 bohr
     new conv_thr            =       0.0004762698 Ry

     new unit-cell volume =   1288.86927 a.u.^3 (   190.99072 Ang^3 )
     density =      1.39170 g/cm^3

CELL_PARAMETERS (angstrom)
   3.388553202  -0.001920850  -0.000000000
  -1.695940106   2.933612730  -0.000000000
   0.000000000   0.000000000  19.219297890

ATOMIC_POSITIONS (angstrom)
Mo            0.0003390843        1.9542654833        9.6096489450
S             1.6930065300        0.9770034778        8.2513757737
S             1.6930065300        0.9770034778       10.9679221162



     Writing output data file ./pwscf.save/
     NEW-OLD atomic charge density approx. for the potential

     negative rho (up, down):  2.886E-04 0.000E+00
     extrapolated charge   26.84255, renormalised to   26.00000

     total cpu time spent up to now is       22.0 secs

     Self-consistent Calculation

     iteration #  1     ecut=    35.00 Ry     beta= 0.70
     Davidson diagonalization with overlap
     ethr =  1.00E-06,  avg # of iterations = 14.0

     total cpu time spent up to now is       22.3 secs

     total energy              =      32.18307537 Ry
     Harris-Foulkes estimate   =    -163.91251732 Ry
     estimated scf accuracy    <     232.94544252 Ry

     iteration #  2     ecut=    35.00 Ry     beta= 0.70
     Davidson diagonalization with overlap
     c_bands:  1 eigenvalues not converged
     ethr =  1.00E-02,  avg # of iterations = 20.0

     total cpu time spent up to now is       22.6 secs

     total energy              =    -218.69480267 Ry
     Harris-Foulkes estimate   =    -329.31692626 Ry
     estimated scf accuracy    <     187.78033695 Ry

     iteration #  3     ecut=    35.00 Ry     beta= 0.70
     Davidson diagonalization with overlap
     ethr =  1.00E-02,  avg # of iterations = 11.0

     total cpu time spent up to now is       22.8 secs

     total energy              =    -210.63703025 Ry
     Harris-Foulkes estimate   =    -229.48896386 Ry
     estimated scf accuracy    <      53.96729694 Ry

     iteration #  4     ecut=    35.00 Ry     beta= 0.70
     Davidson diagonalization with overlap
     ethr =  1.00E-02,  avg # of iterations =  7.0

     total cpu time spent up to now is       23.0 secs

     total energy              =    -198.73290864 Ry
     Harris-Foulkes estimate   =    -212.12122568 Ry
     estimated scf accuracy    <      34.60283850 Ry

     iteration #  5     ecut=    35.00 Ry     beta= 0.70
     Davidson diagonalization with overlap
     ethr =  1.00E-02,  avg # of iterations =  5.0

     total cpu time spent up to now is       23.2 secs

     total energy              =    -196.26759260 Ry
     Harris-Foulkes estimate   =    -199.98062930 Ry
     estimated scf accuracy    <      23.02882294 Ry

     iteration #  6     ecut=    35.00 Ry     beta= 0.70
     Davidson diagonalization with overlap
     ethr =  1.00E-02,  avg # of iterations =  2.0

     total cpu time spent up to now is       23.3 secs

     total energy              =    -194.53498730 Ry
     Harris-Foulkes estimate   =    -196.48339224 Ry
     estimated scf accuracy    <      15.66771658 Ry

     iteration #  7     ecut=    35.00 Ry     beta= 0.70
     Davidson diagonalization with overlap
     ethr =  1.00E-02,  avg # of iterations =  1.0

     total cpu time spent up to now is       23.5 secs

     total energy              =    -186.80635956 Ry
     Harris-Foulkes estimate   =    -194.61388300 Ry
     estimated scf accuracy    <      13.25355124 Ry

     iteration #  8     ecut=    35.00 Ry     beta= 0.70
     Davidson diagonalization with overlap
     ethr =  1.00E-02,  avg # of iterations =  6.0

     total cpu time spent up to now is       23.7 secs

     total energy              =    -189.57679563 Ry
     Harris-Foulkes estimate   =    -189.62114100 Ry
     estimated scf accuracy    <      18.82776155 Ry

     iteration #  9     ecut=    35.00 Ry     beta= 0.70
     Davidson diagonalization with overlap
     ethr =  1.00E-02,  avg # of iterations =  1.0

     total cpu time spent up to now is       23.9 secs

     total energy              =    -189.48841121 Ry
     Harris-Foulkes estimate   =    -189.60052256 Ry
     estimated scf accuracy    <      18.03003089 Ry

     iteration # 10     ecut=    35.00 Ry     beta= 0.70
     Davidson diagonalization with overlap
     ethr =  1.00E-02,  avg # of iterations =  1.0

     negative rho (up, down):  2.954E-02 0.000E+00

     total cpu time spent up to now is       24.0 secs

     total energy              =    -185.99532699 Ry
     Harris-Foulkes estimate   =    -189.49951081 Ry
     estimated scf accuracy    <      17.58347451 Ry

     iteration # 11     ecut=    35.00 Ry     beta= 0.70
     Davidson diagonalization with overlap
     ethr =  1.00E-02,  avg # of iterations =  8.0

     negative rho (up, down):  3.609E-02 0.000E+00

     total cpu time spent up to now is       24.2 secs

     total energy              =    -185.58530753 Ry
     Harris-Foulkes estimate   =    -187.78137012 Ry
     estimated scf accuracy    <      51.86822540 Ry

     iteration # 12     ecut=    35.00 Ry     beta= 0.70
     Davidson diagonalization with overlap
     ethr =  1.00E-02,  avg # of iterations =  2.0

     negative rho (up, down):  3.237E-02 0.000E+00

     total cpu time spent up to now is       24.4 secs

     total energy              =    -181.69188035 Ry
     Harris-Foulkes estimate   =    -185.74239014 Ry
     estimated scf accuracy    <      38.87841878 Ry

     iteration # 13     ecut=    35.00 Ry     beta= 0.70
     Davidson diagonalization with overlap
     ethr =  1.00E-02,  avg # of iterations =  6.0

     negative rho (up, down):  1.023E-03 0.000E+00

     total cpu time spent up to now is       24.6 secs

     total energy              =    -180.46051098 Ry
     Harris-Foulkes estimate   =    -185.70695705 Ry
     estimated scf accuracy    <      11.38529254 Ry

     iteration # 14     ecut=    35.00 Ry     beta= 0.70
     Davidson diagonalization with overlap
     ethr =  1.00E-02,  avg # of iterations =  7.0

     negative rho (up, down):  1.155E-06 0.000E+00

     total cpu time spent up to now is       24.8 secs

     total energy              =    -187.76073062 Ry
     Harris-Foulkes estimate   =    -190.70665362 Ry
     estimated scf accuracy    <      33.33174724 Ry

     iteration # 15     ecut=    35.00 Ry     beta= 0.70
     Davidson diagonalization with overlap
     ethr =  1.00E-02,  avg # of iterations =  2.0

     total cpu time spent up to now is       25.0 secs

     total energy              =    -187.58162742 Ry
     Harris-Foulkes estimate   =    -188.13932702 Ry
     estimated scf accuracy    <      20.45152828 Ry

     iteration # 16     ecut=    35.00 Ry     beta= 0.70
     Davidson diagonalization with overlap
     ethr =  1.00E-02,  avg # of iterations =  1.0

     negative rho (up, down):  1.887E-02 0.000E+00

     total cpu time spent up to now is       25.1 secs

     total energy              =    -181.48846122 Ry
     Harris-Foulkes estimate   =    -187.63130336 Ry
     estimated scf accuracy    <      18.68730756 Ry

     iteration # 17     ecut=    35.00 Ry     beta= 0.70
     Davidson diagonalization with overlap
     ethr =  1.00E-02,  avg # of iterations =  5.0

     negative rho (up, down):  4.481E-03 0.000E+00

     total cpu time spent up to now is       25.3 secs

     total energy              =    -185.25238796 Ry
     Harris-Foulkes estimate   =    -187.33326572 Ry
     estimated scf accuracy    <      17.56218948 Ry

     iteration # 18     ecut=    35.00 Ry     beta= 0.70
     Davidson diagonalization with overlap
     ethr =  1.00E-02,  avg # of iterations =  3.0

     negative rho (up, down):  2.863E-03 0.000E+00

     total cpu time spent up to now is       25.5 secs

     total energy              =    -184.90797036 Ry
     Harris-Foulkes estimate   =    -185.68069257 Ry
     estimated scf accuracy    <       5.39036635 Ry

     iteration # 19     ecut=    35.00 Ry     beta= 0.70
     Davidson diagonalization with overlap
     ethr =  1.00E-02,  avg # of iterations =  5.0

     negative rho (up, down):  1.841E-04 0.000E+00

     total cpu time spent up to now is       25.7 secs

     total energy              =    -185.30985620 Ry
     Harris-Foulkes estimate   =    -185.30231447 Ry
     estimated scf accuracy    <       0.62732817 Ry

     iteration # 20     ecut=    35.00 Ry     beta= 0.70
     Davidson diagonalization with overlap
     ethr =  2.41E-03,  avg # of iterations =  3.0

     total cpu time spent up to now is       25.9 secs

     total energy              =    -185.29234876 Ry
     Harris-Foulkes estimate   =    -185.35000351 Ry
     estimated scf accuracy    <       0.51282503 Ry

     iteration # 21     ecut=    35.00 Ry     beta= 0.70
     Davidson diagonalization with overlap
     ethr =  1.97E-03,  avg # of iterations =  1.0

     negative rho (up, down):  3.616E-03 0.000E+00

     total cpu time spent up to now is       26.1 secs

     total energy              =    -185.03300715 Ry
     Harris-Foulkes estimate   =    -185.29806315 Ry
     estimated scf accuracy    <       0.42204990 Ry

     iteration # 22     ecut=    35.00 Ry     beta= 0.70
     Davidson diagonalization with overlap
     ethr =  1.62E-03,  avg # of iterations =  4.0

     total cpu time spent up to now is       26.2 secs

     total energy              =    -184.91492802 Ry
     Harris-Foulkes estimate   =    -185.29985826 Ry
     estimated scf accuracy    <       1.73612082 Ry

     iteration # 23     ecut=    35.00 Ry     beta= 0.70
     Davidson diagonalization with overlap
     ethr =  1.62E-03,  avg # of iterations =  3.0

     total cpu time spent up to now is       26.4 secs

     total energy              =    -185.06842337 Ry
     Harris-Foulkes estimate   =    -185.08393596 Ry
     estimated scf accuracy    <       0.07147615 Ry

     iteration # 24     ecut=    35.00 Ry     beta= 0.70
     Davidson diagonalization with overlap
     ethr =  2.75E-04,  avg # of iterations =  3.0

     negative rho (up, down):  1.119E-05 0.000E+00

     total cpu time spent up to now is       26.6 secs

     total energy              =    -185.08012315 Ry
     Harris-Foulkes estimate   =    -185.08092472 Ry
     estimated scf accuracy    <       0.08144303 Ry

     iteration # 25     ecut=    35.00 Ry     beta= 0.70
     Davidson diagonalization with overlap
     ethr =  2.75E-04,  avg # of iterations =  1.0

     negative rho (up, down):  8.627E-04 0.000E+00

     total cpu time spent up to now is       26.8 secs

     total energy              =    -185.08955433 Ry
     Harris-Foulkes estimate   =    -185.08182974 Ry
     estimated scf accuracy    <       0.09245185 Ry

     iteration # 26     ecut=    35.00 Ry     beta= 0.70
     Davidson diagonalization with overlap
     ethr =  2.75E-04,  avg # of iterations =  3.0

     negative rho (up, down):  1.137E-03 0.000E+00

     total cpu time spent up to now is       27.0 secs

     total energy              =    -185.10098090 Ry
     Harris-Foulkes estimate   =    -185.09882663 Ry
     estimated scf accuracy    <       0.29027041 Ry

     iteration # 27     ecut=    35.00 Ry     beta= 0.70
     Davidson diagonalization with overlap
     ethr =  2.75E-04,  avg # of iterations =  1.0

     negative rho (up, down):  1.306E-03 0.000E+00

     total cpu time spent up to now is       27.1 secs

     total energy              =    -185.10423168 Ry
     Harris-Foulkes estimate   =    -185.10144863 Ry
     estimated scf accuracy    <       0.29646874 Ry

     iteration # 28     ecut=    35.00 Ry     beta= 0.70
     Davidson diagonalization with overlap
     ethr =  2.75E-04,  avg # of iterations =  1.0

     negative rho (up, down):  7.206E-03 0.000E+00

     total cpu time spent up to now is       27.3 secs

     total energy              =    -185.08229374 Ry
     Harris-Foulkes estimate   =    -185.10447618 Ry
     estimated scf accuracy    <       0.31364027 Ry

     iteration # 29     ecut=    35.00 Ry     beta= 0.70
     Davidson diagonalization with overlap
     ethr =  2.75E-04,  avg # of iterations =  3.0

     negative rho (up, down):  1.163E-04 0.000E+00

     total cpu time spent up to now is       27.5 secs

     total energy              =    -185.04515681 Ry
     Harris-Foulkes estimate   =    -185.10478469 Ry
     estimated scf accuracy    <       0.32672091 Ry

     iteration # 30     ecut=    35.00 Ry     beta= 0.70
     Davidson diagonalization with overlap
     ethr =  2.75E-04,  avg # of iterations =  4.0

     negative rho (up, down):  4.373E-05 0.000E+00

     total cpu time spent up to now is       27.7 secs

     total energy              =    -185.06370231 Ry
     Harris-Foulkes estimate   =    -185.06773802 Ry
     estimated scf accuracy    <       0.02831251 Ry

     iteration # 31     ecut=    35.00 Ry     beta= 0.70
     Davidson diagonalization with overlap
     ethr =  1.09E-04,  avg # of iterations =  2.0

     negative rho (up, down):  2.621E-04 0.000E+00

     total cpu time spent up to now is       27.8 secs

     total energy              =    -185.06418909 Ry
     Harris-Foulkes estimate   =    -185.06508045 Ry
     estimated scf accuracy    <       0.00758234 Ry

     iteration # 32     ecut=    35.00 Ry     beta= 0.70
     Davidson diagonalization with overlap
     ethr =  2.92E-05,  avg # of iterations =  3.0

     negative rho (up, down):  2.832E-04 0.000E+00

     total cpu time spent up to now is       28.0 secs

     End of self-consistent calculation

          k = 0.0000 0.0000 0.0000 (  2082 PWs)   bands (ev):

   -61.9733 -36.3052 -36.3023 -35.7586 -16.7849 -14.9001  -7.8027  -6.0603
    -6.0521  -4.5749  -4.5443  -3.0008  -0.6894

     highest occupied level (ev):    -0.6894

!    total energy              =    -185.06529653 Ry
     Harris-Foulkes estimate   =    -185.06548051 Ry
     estimated scf accuracy    <       0.00027801 Ry

     The total energy is the sum of the following terms:

     one-electron contribution =    -987.98871033 Ry
     hartree contribution      =     493.16332239 Ry
     xc contribution           =     -32.76835187 Ry
     ewald contribution        =     342.52844328 Ry

     convergence has been achieved in  32 iterations

     negative rho (up, down):  2.832E-04 0.000E+00

     Forces acting on atoms (cartesian axes, Ry/au):

     atom    1 type  1   force =    -0.00376185    0.00217190    0.00000000
     atom    2 type  2   force =     0.00188092   -0.00108595   -0.03300897
     atom    3 type  2   force =     0.00188092   -0.00108595    0.03300897

     Total force =     0.046984     Total SCF correction =     0.048344
     SCF correction compared to forces is large: reduce conv_thr to get better values


     Computing stress (Cartesian axis) and pressure


     negative rho (up, down):  2.832E-04 0.000E+00
          total   stress  (Ry/bohr**3)                   (kbar)     P=       18.60
   0.00013922   0.00000059  -0.00000000           20.48        0.09       -0.00
   0.00000059   0.00013991  -0.00000000            0.09       20.58       -0.00
  -0.00000000  -0.00000000   0.00010018           -0.00       -0.00       14.74


     number of scf cycles    =   4
     number of bfgs steps    =   3

     enthalpy old            =    -185.0531760252 Ry
     enthalpy new            =    -185.0652965254 Ry

     CASE: enthalpy_new < enthalpy_old

     new trust radius        =       0.0636183855 bohr
     new conv_thr            =       0.0016504485 Ry

     new unit-cell volume =   1312.27300 a.u.^3 (   194.45879 Ang^3 )
     density =      1.36688 g/cm^3

CELL_PARAMETERS (angstrom)
   3.418576756  -0.002000453  -0.000000000
  -1.711020821   2.959574089  -0.000000000
   0.000000000   0.000000000  19.226488934

ATOMIC_POSITIONS (angstrom)
Mo           -0.0019036075        1.9728148052        9.6132444668
S             1.7090937687        0.9849700094        8.2467517383
S             1.7090937687        0.9849700094       10.9797371953



     Writing output data file ./pwscf.save/
     NEW-OLD atomic charge density approx. for the potential

     negative rho (up, down):  3.363E-04 0.000E+00
     extrapolated charge   26.46368, renormalised to   26.00000

     total cpu time spent up to now is       30.9 secs

     Self-consistent Calculation

     iteration #  1     ecut=    35.00 Ry     beta= 0.70
     Davidson diagonalization with overlap
     ethr =  1.00E-06,  avg # of iterations = 15.0

     total cpu time spent up to now is       31.1 secs

     total energy              =    -112.64076933 Ry
     Harris-Foulkes estimate   =    -170.34709373 Ry
     estimated scf accuracy    <      77.37125788 Ry

     iteration #  2     ecut=    35.00 Ry     beta= 0.70
     Davidson diagonalization with overlap
     ethr =  1.00E-02,  avg # of iterations = 12.0

     total cpu time spent up to now is       31.4 secs

     total energy              =    -191.03675522 Ry
     Harris-Foulkes estimate   =    -238.68309473 Ry
     estimated scf accuracy    <      87.61034042 Ry

     iteration #  3     ecut=    35.00 Ry     beta= 0.70
     Davidson diagonalization with overlap
     ethr =  1.00E-02,  avg # of iterations =  8.0

     total cpu time spent up to now is       31.6 secs

     total energy              =    -192.81583951 Ry
     Harris-Foulkes estimate   =    -201.28145580 Ry
     estimated scf accuracy    <      22.26584960 Ry

     iteration #  4     ecut=    35.00 Ry     beta= 0.70
     Davidson diagonalization with overlap
     ethr =  1.00E-02,  avg # of iterations =  6.0

     total cpu time spent up to now is       31.8 secs

     total energy              =    -191.19592861 Ry
     Harris-Foulkes estimate   =    -194.68834078 Ry
     estimated scf accuracy    <      12.65582639 Ry

     iteration #  5     ecut=    35.00 Ry     beta= 0.70
     Davidson diagonalization with overlap
     ethr =  1.00E-02,  avg # of iterations =  1.0

     total cpu time spent up to now is       31.9 secs

     total energy              =    -188.56974205 Ry
     Harris-Foulkes estimate   =    -191.29181469 Ry
     estimated scf accuracy    <       8.55522715 Ry

     iteration #  6     ecut=    35.00 Ry     beta= 0.70
     Davidson diagonalization with overlap
     ethr =  1.00E-02,  avg # of iterations =  1.0

     total cpu time spent up to now is       32.1 secs

     total energy              =    -185.54101150 Ry
     Harris-Foulkes estimate   =    -188.64401839 Ry
     estimated scf accuracy    <       5.32799875 Ry

     iteration #  7     ecut=    35.00 Ry     beta= 0.70
     Davidson diagonalization with overlap
     ethr =  1.00E-02,  avg # of iterations =  4.0

     total cpu time spent up to now is       32.3 secs

     total energy              =    -186.41187292 Ry
     Harris-Foulkes estimate   =    -186.19621232 Ry
     estimated scf accuracy    <       1.93431601 Ry

     iteration #  8     ecut=    35.00 Ry     beta= 0.70
     Davidson diagonalization with overlap
     ethr =  7.44E-03,  avg # of iterations =  1.0

     total cpu time spent up to now is       32.4 secs

     total energy              =    -186.71008411 Ry
     Harris-Foulkes estimate   =    -186.43892021 Ry
     estimated scf accuracy    <       2.09441576 Ry

     iteration #  9     ecut=    35.00 Ry     beta= 0.70
     Davidson diagonalization with overlap
     ethr =  7.44E-03,  avg # of iterations =  1.0

     total cpu time spent up to now is       32.6 secs

     total energy              =    -185.93543911 Ry
     Harris-Foulkes estimate   =    -186.71834047 Ry
     estimated scf accuracy    <       2.40136758 Ry

     iteration # 10     ecut=    35.00 Ry     beta= 0.70
     Davidson diagonalization with overlap
     ethr =  7.44E-03,  avg # of iterations =  2.0

     negative rho (up, down):  3.509E-02 0.000E+00

     total cpu time spent up to now is       32.8 secs

     total energy              =    -185.66610636 Ry
     Harris-Foulkes estimate   =    -186.21400745 Ry
     estimated scf accuracy    <       1.75383574 Ry

     iteration # 11     ecut=    35.00 Ry     beta= 0.70
     Davidson diagonalization with overlap
     ethr =  6.75E-03,  avg # of iterations =  4.0

     negative rho (up, down):  4.249E-02 0.000E+00

     total cpu time spent up to now is       33.0 secs

     total energy              =    -188.24226045 Ry
     Harris-Foulkes estimate   =    -186.97628842 Ry
     estimated scf accuracy    <      14.59510666 Ry

     iteration # 12     ecut=    35.00 Ry     beta= 0.70
     Davidson diagonalization with overlap
     ethr =  6.75E-03,  avg # of iterations =  2.0

     negative rho (up, down):  1.289E-03 0.000E+00

     total cpu time spent up to now is       33.1 secs

     total energy              =    -183.55895257 Ry
     Harris-Foulkes estimate   =    -188.32279936 Ry
     estimated scf accuracy    <      18.67794026 Ry

     iteration # 13     ecut=    35.00 Ry     beta= 0.70
     Davidson diagonalization with overlap
     ethr =  6.75E-03,  avg # of iterations =  4.0

     total cpu time spent up to now is       33.3 secs

     total energy              =    -185.10275858 Ry
     Harris-Foulkes estimate   =    -185.21205817 Ry
     estimated scf accuracy    <       1.36986256 Ry

     iteration # 14     ecut=    35.00 Ry     beta= 0.70
     Davidson diagonalization with overlap
     ethr =  5.27E-03,  avg # of iterations =  1.0

     negative rho (up, down):  2.433E-06 0.000E+00

     total cpu time spent up to now is       33.5 secs

     total energy              =    -185.02683936 Ry
     Harris-Foulkes estimate   =    -185.13194126 Ry
     estimated scf accuracy    <       0.83493026 Ry

     iteration # 15     ecut=    35.00 Ry     beta= 0.70
     Davidson diagonalization with overlap
     ethr =  3.21E-03,  avg # of iterations =  3.0

     total cpu time spent up to now is       33.7 secs

     total energy              =    -185.33540285 Ry
     Harris-Foulkes estimate   =    -185.20938105 Ry
     estimated scf accuracy    <       0.78193455 Ry

     iteration # 16     ecut=    35.00 Ry     beta= 0.70
     Davidson diagonalization with overlap
     ethr =  3.01E-03,  avg # of iterations =  2.0

     negative rho (up, down):  3.368E-06 0.000E+00

     total cpu time spent up to now is       33.8 secs

     total energy              =    -185.58288490 Ry
     Harris-Foulkes estimate   =    -185.38268539 Ry
     estimated scf accuracy    <       1.86300894 Ry

     iteration # 17     ecut=    35.00 Ry     beta= 0.70
     Davidson diagonalization with overlap
     ethr =  3.01E-03,  avg # of iterations =  1.0

     negative rho (up, down):  6.395E-07 0.000E+00

     total cpu time spent up to now is       34.0 secs

     total energy              =    -185.40516915 Ry
     Harris-Foulkes estimate   =    -185.60695872 Ry
     estimated scf accuracy    <       2.59485470 Ry

     iteration # 18     ecut=    35.00 Ry     beta= 0.70
     Davidson diagonalization with overlap
     ethr =  3.01E-03,  avg # of iterations =  1.0

     negative rho (up, down):  3.999E-08 0.000E+00

     total cpu time spent up to now is       34.2 secs

     total energy              =    -185.31688896 Ry
     Harris-Foulkes estimate   =    -185.41856285 Ry
     estimated scf accuracy    <       2.27647326 Ry

     iteration # 19     ecut=    35.00 Ry     beta= 0.70
     Davidson diagonalization with overlap
     ethr =  3.01E-03,  avg # of iterations =  1.0

     total cpu time spent up to now is       34.4 secs

     total energy              =    -185.15204461 Ry
     Harris-Foulkes estimate   =    -185.32794560 Ry
     estimated scf accuracy    <       1.85230809 Ry

     iteration # 20     ecut=    35.00 Ry     beta= 0.70
     Davidson diagonalization with overlap
     ethr =  3.01E-03,  avg # of iterations =  1.0

     negative rho (up, down):  1.293E-04 0.000E+00

     total cpu time spent up to now is       34.5 secs

     total energy              =    -184.61965507 Ry
     Harris-Foulkes estimate   =    -185.16915648 Ry
     estimated scf accuracy    <       1.25945420 Ry

     iteration # 21     ecut=    35.00 Ry     beta= 0.70
     Davidson diagonalization with overlap
     ethr =  3.01E-03,  avg # of iterations =  4.0

     negative rho (up, down):  4.641E-05 0.000E+00

     total cpu time spent up to now is       34.7 secs

     total energy              =    -184.90635011 Ry
     Harris-Foulkes estimate   =    -185.29325169 Ry
     estimated scf accuracy    <       1.49969074 Ry

     iteration # 22     ecut=    35.00 Ry     beta= 0.70
     Davidson diagonalization with overlap
     ethr =  3.01E-03,  avg # of iterations =  3.0

     negative rho (up, down):  1.464E-04 0.000E+00

     total cpu time spent up to now is       34.9 secs

     total energy              =    -185.05311459 Ry
     Harris-Foulkes estimate   =    -185.07387835 Ry
     estimated scf accuracy    <       0.15294284 Ry

     iteration # 23     ecut=    35.00 Ry     beta= 0.70
     Davidson diagonalization with overlap
     ethr =  5.88E-04,  avg # of iterations =  4.0

     negative rho (up, down):  7.270E-04 0.000E+00

     total cpu time spent up to now is       35.1 secs

     total energy              =    -185.01614888 Ry
     Harris-Foulkes estimate   =    -185.09936958 Ry
     estimated scf accuracy    <       0.22201962 Ry

     iteration # 24     ecut=    35.00 Ry     beta= 0.70
     Davidson diagonalization with overlap
     ethr =  5.88E-04,  avg # of iterations =  3.0

     negative rho (up, down):  1.996E-04 0.000E+00

     total cpu time spent up to now is       35.2 secs

     total energy              =    -185.05445425 Ry
     Harris-Foulkes estimate   =    -185.08573511 Ry
     estimated scf accuracy    <       0.14710594 Ry

     iteration # 25     ecut=    35.00 Ry     beta= 0.70
     Davidson diagonalization with overlap
     ethr =  5.66E-04,  avg # of iterations =  3.0

     negative rho (up, down):  3.160E-04 0.000E+00

     total cpu time spent up to now is       35.4 secs

     total energy              =    -185.06850637 Ry
     Harris-Foulkes estimate   =    -185.06915765 Ry
     estimated scf accuracy    <       0.00473341 Ry

     iteration # 26     ecut=    35.00 Ry     beta= 0.70
     Davidson diagonalization with overlap
     ethr =  1.82E-05,  avg # of iterations =  3.0

     negative rho (up, down):  3.237E-04 0.000E+00

     total cpu time spent up to now is       35.6 secs

     End of self-consistent calculation

          k = 0.0000 0.0000 0.0000 (  2082 PWs)   bands (ev):

   -62.2016 -36.5085 -36.4995 -35.9392 -16.6611 -14.8467  -7.7031  -6.0264
    -6.0140  -4.5657  -4.5585  -2.9863  -0.7832

     highest occupied level (ev):    -0.7832

!    total energy              =    -185.06888611 Ry
     Harris-Foulkes estimate   =    -185.06957999 Ry
     estimated scf accuracy    <       0.00086173 Ry

     The total energy is the sum of the following terms:

     one-electron contribution =    -971.50194595 Ry
     hartree contribution      =     485.07758375 Ry
     xc contribution           =     -32.73855496 Ry
     ewald contribution        =     334.09403104 Ry

     convergence has been achieved in  26 iterations

     negative rho (up, down):  3.237E-04 0.000E+00

     Forces acting on atoms (cartesian axes, Ry/au):

     atom    1 type  1   force =     0.00130454   -0.00075318   -0.00000000
     atom    2 type  2   force =    -0.00065227    0.00037659   -0.02381961
     atom    3 type  2   force =    -0.00065227    0.00037659    0.02381961

     Total force =     0.033736     Total SCF correction =     0.017083
     SCF correction compared to forces is large: reduce conv_thr to get better values


     Computing stress (Cartesian axis) and pressure


     negative rho (up, down):  3.237E-04 0.000E+00
          total   stress  (Ry/bohr**3)                   (kbar)     P=       22.36
   0.00015438   0.00000036  -0.00000000           22.71        0.05       -0.00
   0.00000036   0.00015480  -0.00000000            0.05       22.77       -0.00
  -0.00000000  -0.00000000   0.00014686           -0.00       -0.00       21.60


     number of scf cycles    =   5
     number of bfgs steps    =   4

     enthalpy old            =    -185.0652965254 Ry
     enthalpy new            =    -185.0688861055 Ry

     CASE: enthalpy_new < enthalpy_old


     WARNING: bfgs curvature condition failed, Theta= 0.783
     new trust radius        =       0.0699925690 bohr
     new conv_thr            =       0.0011909805 Ry

     new unit-cell volume =   1337.98793 a.u.^3 (   198.26935 Ang^3 )
     density =      1.34061 g/cm^3

CELL_PARAMETERS (angstrom)
   3.451602678  -0.002077940  -0.000000000
  -1.727600888   2.988136633  -0.000000000
   0.000000000   0.000000000  19.230276458

ATOMIC_POSITIONS (angstrom)
Mo           -0.0051783376        1.9936955099        9.6151382288
S             1.7271994406        0.9935067332        8.2383211321
S             1.7271994406        0.9935067332       10.9919553254



     Writing output data file ./pwscf.save/
     NEW-OLD atomic charge density approx. for the potential

     negative rho (up, down):  3.850E-04 0.000E+00
     extrapolated charge   26.49968, renormalised to   26.00000

     total cpu time spent up to now is       38.4 secs

     Self-consistent Calculation

     iteration #  1     ecut=    35.00 Ry     beta= 0.70
     Davidson diagonalization with overlap
     ethr =  1.00E-06,  avg # of iterations = 15.0

     total cpu time spent up to now is       38.7 secs

     total energy              =    -106.13680000 Ry
     Harris-Foulkes estimate   =    -169.92816558 Ry
     estimated scf accuracy    <      84.46436233 Ry

     iteration #  2     ecut=    35.00 Ry     beta= 0.70
     Davidson diagonalization with overlap
     ethr =  1.00E-02,  avg # of iterations = 19.0

     total cpu time spent up to now is       38.9 secs

     total energy              =    -192.18454322 Ry
     Harris-Foulkes estimate   =    -243.04251713 Ry
     estimated scf accuracy    <      92.84391206 Ry

     iteration #  3     ecut=    35.00 Ry     beta= 0.70
     Davidson diagonalization with overlap
     ethr =  1.00E-02,  avg # of iterations = 12.0

     total cpu time spent up to now is       39.1 secs

     total energy              =    -193.95957345 Ry
     Harris-Foulkes estimate   =    -202.71988545 Ry
     estimated scf accuracy    <      23.14737775 Ry

     iteration #  4     ecut=    35.00 Ry     beta= 0.70
     Davidson diagonalization with overlap
     ethr =  1.00E-02,  avg # of iterations =  7.0

     total cpu time spent up to now is       39.3 secs

     total energy              =    -190.77687512 Ry
     Harris-Foulkes estimate   =    -195.63139571 Ry
     estimated scf accuracy    <      15.46112694 Ry

     iteration #  5     ecut=    35.00 Ry     beta= 0.70
     Davidson diagonalization with overlap
     ethr =  1.00E-02,  avg # of iterations =  6.0

     total cpu time spent up to now is       39.5 secs

     total energy              =    -189.82332381 Ry
     Harris-Foulkes estimate   =    -191.07969614 Ry
     estimated scf accuracy    <       9.15440176 Ry

     iteration #  6     ecut=    35.00 Ry     beta= 0.70
     Davidson diagonalization with overlap
     ethr =  1.00E-02,  avg # of iterations =  1.0

     total cpu time spent up to now is       39.6 secs

     total energy              =    -186.64801485 Ry
     Harris-Foulkes estimate   =    -189.88137336 Ry
     estimated scf accuracy    <       7.30006715 Ry

     iteration #  7     ecut=    35.00 Ry     beta= 0.70
     Davidson diagonalization with overlap
     ethr =  1.00E-02,  avg # of iterations =  5.0

     total cpu time spent up to now is       39.8 secs

     total energy              =    -187.66739583 Ry
     Harris-Foulkes estimate   =    -187.71908366 Ry
     estimated scf accuracy    <       8.22006546 Ry

     iteration #  8     ecut=    35.00 Ry     beta= 0.70
     Davidson diagonalization with overlap
     ethr =  1.00E-02,  avg # of iterations =  1.0

     total cpu time spent up to now is       40.0 secs

     total energy              =    -187.63466373 Ry
     Harris-Foulkes estimate   =    -187.68892611 Ry
     estimated scf accuracy    <       7.74129717 Ry

     iteration #  9     ecut=    35.00 Ry     beta= 0.70
     Davidson diagonalization with overlap
     ethr =  1.00E-02,  avg # of iterations =  1.0

     total cpu time spent up to now is       40.2 secs

     total energy              =    -186.86848140 Ry
     Harris-Foulkes estimate   =    -187.64522394 Ry
     estimated scf accuracy    <       7.46046911 Ry

     iteration # 10     ecut=    35.00 Ry     beta= 0.70
     Davidson diagonalization with overlap
     ethr =  1.00E-02,  avg # of iterations =  2.0

     negative rho (up, down):  1.069E-03 0.000E+00

     total cpu time spent up to now is       40.4 secs

     total energy              =    -187.67925639 Ry
     Harris-Foulkes estimate   =    -186.96173022 Ry
     estimated scf accuracy    <       8.48539180 Ry

     iteration # 11     ecut=    35.00 Ry     beta= 0.70
     Davidson diagonalization with overlap
     ethr =  1.00E-02,  avg # of iterations = 11.0

     negative rho (up, down):  3.614E-03 0.000E+00

     total cpu time spent up to now is       40.6 secs

     total energy              =    -183.89687544 Ry
     Harris-Foulkes estimate   =    -193.19870213 Ry
     estimated scf accuracy    <     122.41920105 Ry

     iteration # 12     ecut=    35.00 Ry     beta= 0.70
     Davidson diagonalization with overlap
     ethr =  1.00E-02,  avg # of iterations =  8.0

     negative rho (up, down):  2.182E-03 0.000E+00

     total cpu time spent up to now is       40.8 secs

     total energy              =    -179.75745884 Ry
     Harris-Foulkes estimate   =    -185.82297891 Ry
     estimated scf accuracy    <      37.70787054 Ry

     iteration # 13     ecut=    35.00 Ry     beta= 0.70
     Davidson diagonalization with overlap
     ethr =  1.00E-02,  avg # of iterations =  5.0

     negative rho (up, down):  2.251E-03 0.000E+00

     total cpu time spent up to now is       41.0 secs

     total energy              =    -185.43446453 Ry
     Harris-Foulkes estimate   =    -185.48086028 Ry
     estimated scf accuracy    <       0.81841785 Ry

     iteration # 14     ecut=    35.00 Ry     beta= 0.70
     Davidson diagonalization with overlap
     ethr =  3.15E-03,  avg # of iterations =  2.0

     negative rho (up, down):  1.168E-03 0.000E+00

     total cpu time spent up to now is       41.2 secs

     total energy              =    -185.34414525 Ry
     Harris-Foulkes estimate   =    -185.46387708 Ry
     estimated scf accuracy    <       0.73484670 Ry

     iteration # 15     ecut=    35.00 Ry     beta= 0.70
     Davidson diagonalization with overlap
     ethr =  2.83E-03,  avg # of iterations =  1.0

     negative rho (up, down):  6.109E-04 0.000E+00

     total cpu time spent up to now is       41.4 secs

     total energy              =    -185.30817853 Ry
     Harris-Foulkes estimate   =    -185.35455964 Ry
     estimated scf accuracy    <       0.51857924 Ry

     iteration # 16     ecut=    35.00 Ry     beta= 0.70
     Davidson diagonalization with overlap
     ethr =  1.99E-03,  avg # of iterations =  1.0

     negative rho (up, down):  3.801E-07 0.000E+00

     total cpu time spent up to now is       41.6 secs

     total energy              =    -185.18274703 Ry
     Harris-Foulkes estimate   =    -185.32201458 Ry
     estimated scf accuracy    <       0.43167786 Ry

     iteration # 17     ecut=    35.00 Ry     beta= 0.70
     Davidson diagonalization with overlap
     ethr =  1.66E-03,  avg # of iterations =  2.0

     total cpu time spent up to now is       41.7 secs

     total energy              =    -185.16265636 Ry
     Harris-Foulkes estimate   =    -185.20672714 Ry
     estimated scf accuracy    <       0.32083817 Ry

     iteration # 18     ecut=    35.00 Ry     beta= 0.70
     Davidson diagonalization with overlap
     ethr =  1.23E-03,  avg # of iterations =  1.0

     total cpu time spent up to now is       41.9 secs

     total energy              =    -185.18363503 Ry
     Harris-Foulkes estimate   =    -185.17043760 Ry
     estimated scf accuracy    <       0.25112772 Ry

     iteration # 19     ecut=    35.00 Ry     beta= 0.70
     Davidson diagonalization with overlap
     ethr =  9.66E-04,  avg # of iterations =  1.0

     total cpu time spent up to now is       42.1 secs

     total energy              =    -185.06751675 Ry
     Harris-Foulkes estimate   =    -185.19078471 Ry
     estimated scf accuracy    <       0.23191514 Ry

     iteration # 20     ecut=    35.00 Ry     beta= 0.70
     Davidson diagonalization with overlap
     ethr =  8.92E-04,  avg # of iterations =  4.0

     negative rho (up, down):  2.938E-06 0.000E+00

     total cpu time spent up to now is       42.3 secs

     total energy              =    -185.03942348 Ry
     Harris-Foulkes estimate   =    -185.17185109 Ry
     estimated scf accuracy    <       0.76289533 Ry

     iteration # 21     ecut=    35.00 Ry     beta= 0.70
     Davidson diagonalization with overlap
     ethr =  8.92E-04,  avg # of iterations =  3.0

     negative rho (up, down):  7.251E-04 0.000E+00

     total cpu time spent up to now is       42.5 secs

     total energy              =    -185.08241457 Ry
     Harris-Foulkes estimate   =    -185.09684080 Ry
     estimated scf accuracy    <       0.06931195 Ry

     iteration # 22     ecut=    35.00 Ry     beta= 0.70
     Davidson diagonalization with overlap
     ethr =  2.67E-04,  avg # of iterations =  5.0

     negative rho (up, down):  5.352E-04 0.000E+00

     total cpu time spent up to now is       42.7 secs

     total energy              =    -185.03094343 Ry
     Harris-Foulkes estimate   =    -185.14523113 Ry
     estimated scf accuracy    <       0.71393288 Ry

     iteration # 23     ecut=    35.00 Ry     beta= 0.70
     Davidson diagonalization with overlap
     ethr =  2.67E-04,  avg # of iterations =  4.0

     negative rho (up, down):  4.058E-04 0.000E+00

     total cpu time spent up to now is       42.8 secs

     total energy              =    -185.07249398 Ry
     Harris-Foulkes estimate   =    -185.07462340 Ry
     estimated scf accuracy    <       0.02810913 Ry

     iteration # 24     ecut=    35.00 Ry     beta= 0.70
     Davidson diagonalization with overlap
     ethr =  1.08E-04,  avg # of iterations =  1.0

     negative rho (up, down):  3.556E-04 0.000E+00

     total cpu time spent up to now is       43.0 secs

     total energy              =    -185.06841109 Ry
     Harris-Foulkes estimate   =    -185.07328736 Ry
     estimated scf accuracy    <       0.02326360 Ry

     iteration # 25     ecut=    35.00 Ry     beta= 0.70
     Davidson diagonalization with overlap
     ethr =  8.95E-05,  avg # of iterations =  3.0

     negative rho (up, down):  3.005E-04 0.000E+00

     total cpu time spent up to now is       43.2 secs

     total energy              =    -185.07135273 Ry
     Harris-Foulkes estimate   =    -185.07238416 Ry
     estimated scf accuracy    <       0.00346723 Ry

     iteration # 26     ecut=    35.00 Ry     beta= 0.70
     Davidson diagonalization with overlap
     ethr =  1.33E-05,  avg # of iterations =  3.0

     negative rho (up, down):  3.754E-04 0.000E+00

     total cpu time spent up to now is       43.4 secs

     End of self-consistent calculation

          k = 0.0000 0.0000 0.0000 (  2082 PWs)   bands (ev):

   -62.2306 -36.5520 -36.5365 -35.9415 -16.5760 -14.8184  -7.6114  -5.9990
    -5.9732  -4.5824  -4.5312  -3.0079  -0.8038

     highest occupied level (ev):    -0.8038

!    total energy              =    -185.07148245 Ry
     Harris-Foulkes estimate   =    -185.07192505 Ry
     estimated scf accuracy    <       0.00047630 Ry

     The total energy is the sum of the following terms:

     one-electron contribution =    -952.71538132 Ry
     hartree contribution      =     475.51151029 Ry
     xc contribution           =     -32.67178832 Ry
     ewald contribution        =     324.80417690 Ry

     convergence has been achieved in  26 iterations

     negative rho (up, down):  3.754E-04 0.000E+00

     Forces acting on atoms (cartesian axes, Ry/au):

     atom    1 type  1   force =     0.00716173   -0.00413483   -0.00000000
     atom    2 type  2   force =    -0.00358087    0.00206741   -0.01079283
     atom    3 type  2   force =    -0.00358087    0.00206741    0.01079283

     Total force =     0.018318     Total SCF correction =     0.138522
     SCF correction compared to forces is large: reduce conv_thr to get better values


     Computing stress (Cartesian axis) and pressure


     negative rho (up, down):  3.754E-04 0.000E+00
          total   stress  (Ry/bohr**3)                   (kbar)     P=        5.20
   0.00003489  -0.00000262  -0.00000000            5.13       -0.38       -0.00
  -0.00000262   0.00003187  -0.00000000           -0.38        4.69       -0.00
  -0.00000000  -0.00000000   0.00003932           -0.00       -0.00        5.78


     number of scf cycles    =   6
     number of bfgs steps    =   5

     enthalpy old            =    -185.0688861055 Ry
     enthalpy new            =    -185.0714824495 Ry

     CASE: enthalpy_new < enthalpy_old

     new trust radius        =       0.0195167876 bohr
     new conv_thr            =       0.0005396415 Ry

     new unit-cell volume =   1345.89271 a.u.^3 (   199.44072 Ang^3 )
     density =      1.33274 g/cm^3

CELL_PARAMETERS (angstrom)
   3.460806429  -0.002373927  -0.000000000
  -1.732459096   2.995959321  -0.000000000
   0.000000000   0.000000000  19.243005918

ATOMIC_POSITIONS (angstrom)
Mo           -0.0006229893        1.9960832792        9.6215029588
S             1.7293527770        0.9972813048        8.2364204256
S             1.7293527770        0.9972813048       11.0065854920



     Writing output data file ./pwscf.save/
     NEW-OLD atomic charge density approx. for the potential

     negative rho (up, down):  3.994E-04 0.000E+00
     extrapolated charge   26.15270, renormalised to   26.00000

     total cpu time spent up to now is       46.2 secs

     Self-consistent Calculation

     iteration #  1     ecut=    35.00 Ry     beta= 0.70
     Davidson diagonalization with overlap
     ethr =  1.00E-06,  avg # of iterations = 10.0

     negative rho (up, down):  1.559E-06 0.000E+00

     total cpu time spent up to now is       46.4 secs

     total energy              =    -184.84873279 Ry
     Harris-Foulkes estimate   =    -179.73181059 Ry
     estimated scf accuracy    <       0.21762697 Ry

     iteration #  2     ecut=    35.00 Ry     beta= 0.70
     Davidson diagonalization with overlap
     ethr =  8.37E-04,  avg # of iterations =  7.0

     negative rho (up, down):  2.153E-06 0.000E+00

     total cpu time spent up to now is       46.6 secs

     total energy              =    -184.34956679 Ry
     Harris-Foulkes estimate   =    -185.70741914 Ry
     estimated scf accuracy    <       8.57551129 Ry

     iteration #  3     ecut=    35.00 Ry     beta= 0.70
     Davidson diagonalization with overlap
     ethr =  8.37E-04,  avg # of iterations =  4.0

[...]

     total cpu time spent up to now is      129.8 secs

     total energy              =    -185.07271605 Ry
     Harris-Foulkes estimate   =    -185.07275983 Ry
     estimated scf accuracy    <       0.00032364 Ry

     iteration #  4     ecut=    35.00 Ry     beta= 0.70
     Davidson diagonalization with overlap
     ethr =  1.24E-06,  avg # of iterations =  2.0

     negative rho (up, down):  4.204E-04 0.000E+00

     total cpu time spent up to now is      130.0 secs

     total energy              =    -185.07273572 Ry
     Harris-Foulkes estimate   =    -185.07273142 Ry
     estimated scf accuracy    <       0.00010847 Ry

     iteration #  5     ecut=    35.00 Ry     beta= 0.70
     Davidson diagonalization with overlap
     ethr =  4.17E-07,  avg # of iterations =  1.0

     negative rho (up, down):  4.200E-04 0.000E+00

     total cpu time spent up to now is      130.1 secs

     total energy              =    -185.07273336 Ry
     Harris-Foulkes estimate   =    -185.07273846 Ry
     estimated scf accuracy    <       0.00011596 Ry

     iteration #  6     ecut=    35.00 Ry     beta= 0.70
     Davidson diagonalization with overlap
     ethr =  4.17E-07,  avg # of iterations =  1.0

     negative rho (up, down):  4.187E-04 0.000E+00

     total cpu time spent up to now is      130.3 secs

     total energy              =    -185.07271778 Ry
     Harris-Foulkes estimate   =    -185.07273488 Ry
     estimated scf accuracy    <       0.00009781 Ry

     iteration #  7     ecut=    35.00 Ry     beta= 0.70
     Davidson diagonalization with overlap
     ethr =  3.76E-07,  avg # of iterations =  1.0

     negative rho (up, down):  4.172E-04 0.000E+00

     total cpu time spent up to now is      130.5 secs

     End of self-consistent calculation

          k = 0.0000 0.0000 0.0000 (  2082 PWs)   bands (ev):

   -62.2834 -36.5910 -36.5835 -35.9731 -16.4446 -14.7667  -7.4966  -5.9015
    -5.8897  -4.5149  -4.5124  -3.0106  -0.8358

     highest occupied level (ev):    -0.8358

!    total energy              =    -185.07268463 Ry
     Harris-Foulkes estimate   =    -185.07272158 Ry
     estimated scf accuracy    <       0.00003998 Ry

     The total energy is the sum of the following terms:

     one-electron contribution =    -937.44830745 Ry
     hartree contribution      =     467.80385376 Ry
     xc contribution           =     -32.62385725 Ry
     ewald contribution        =     317.19562631 Ry

     convergence has been achieved in   7 iterations

     negative rho (up, down):  4.172E-04 0.000E+00

     Forces acting on atoms (cartesian axes, Ry/au):

     atom    1 type  1   force =    -0.00004707    0.00002718    0.00000000
     atom    2 type  2   force =     0.00002354   -0.00001359   -0.00180313
     atom    3 type  2   force =     0.00002354   -0.00001359    0.00180313

     Total force =     0.002551     Total SCF correction =     0.017432
     SCF correction compared to forces is large: reduce conv_thr to get better values


     Computing stress (Cartesian axis) and pressure


     negative rho (up, down):  4.172E-04 0.000E+00
          total   stress  (Ry/bohr**3)                   (kbar)     P=       -1.13
  -0.00000307   0.00000023  -0.00000000           -0.45        0.03       -0.00
   0.00000023  -0.00000280  -0.00000000            0.03       -0.41       -0.00
   0.00000000   0.00000000  -0.00001724            0.00        0.00       -2.54


     number of scf cycles    =  27
     number of bfgs steps    =  13

     enthalpy old            =    -185.0727165003 Ry
     enthalpy new            =    -185.0726846256 Ry

     CASE: enthalpy_new > enthalpy_old

     new trust radius        =       0.0000831890 bohr

     trust_radius < trust_radius_min

     resetting bfgs history

     Message from routine bfgs:
     history already reset at previous step: stopping
     new conv_thr            =       0.0000500000 Ry

     new unit-cell volume =   1359.27468 a.u.^3 (   201.42372 Ang^3 )
     density =      1.31962 g/cm^3

CELL_PARAMETERS (angstrom)
   3.478437280  -0.002234945  -0.000000000
  -1.741154159   3.011297578  -0.000000000
   0.000000000   0.000000000  19.236858087

ATOMIC_POSITIONS (angstrom)
Mo           -0.0014659474        2.0068881204        9.6184290436
S             1.7386699671        1.0022201817        8.2295009511
S             1.7386699671        1.0022201817       11.0073571362



     Writing output data file ./pwscf.save/
     NEW-OLD atomic charge density approx. for the potential

     negative rho (up, down):  4.172E-04 0.000E+00

     total cpu time spent up to now is      133.3 secs

     Self-consistent Calculation

     iteration #  1     ecut=    35.00 Ry     beta= 0.70
     Davidson diagonalization with overlap
     ethr =  1.00E-06,  avg # of iterations =  4.0

     negative rho (up, down):  4.179E-04 0.000E+00

     total cpu time spent up to now is      133.5 secs

     total energy              =    -185.07148244 Ry
     Harris-Foulkes estimate   =    -185.07294839 Ry
     estimated scf accuracy    <       0.00174106 Ry

     iteration #  2     ecut=    35.00 Ry     beta= 0.70
     Davidson diagonalization with overlap
     ethr =  6.70E-06,  avg # of iterations =  5.0

     negative rho (up, down):  4.179E-04 0.000E+00

     total cpu time spent up to now is      133.7 secs

     total energy              =    -185.06942019 Ry
     Harris-Foulkes estimate   =    -185.07645613 Ry
     estimated scf accuracy    <       0.03014886 Ry

     iteration #  3     ecut=    35.00 Ry     beta= 0.70
     Davidson diagonalization with overlap
     ethr =  6.70E-06,  avg # of iterations =  5.0

     negative rho (up, down):  4.176E-04 0.000E+00

     total cpu time spent up to now is      133.9 secs

     total energy              =    -185.07260656 Ry
     Harris-Foulkes estimate   =    -185.07284522 Ry
     estimated scf accuracy    <       0.00122399 Ry

     iteration #  4     ecut=    35.00 Ry     beta= 0.70
     Davidson diagonalization with overlap
     ethr =  4.71E-06,  avg # of iterations =  2.0

     negative rho (up, down):  4.173E-04 0.000E+00

     total cpu time spent up to now is      134.0 secs

     End of self-consistent calculation

          k = 0.0000 0.0000 0.0000 (  2082 PWs)   bands (ev):

   -62.3010 -36.6077 -36.6003 -35.9897 -16.4552 -14.7762  -7.5062  -5.9138
    -5.9019  -4.5263  -4.5239  -3.0185  -0.8474

     highest occupied level (ev):    -0.8474

!    total energy              =    -185.07270776 Ry
     Harris-Foulkes estimate   =    -185.07271442 Ry
     estimated scf accuracy    <       0.00000744 Ry

     The total energy is the sum of the following terms:

     one-electron contribution =    -937.55489331 Ry
     hartree contribution      =     467.91284295 Ry
     xc contribution           =     -32.62629039 Ry
     ewald contribution        =     317.19563299 Ry

     convergence has been achieved in   4 iterations

     negative rho (up, down):  4.173E-04 0.000E+00

     Forces acting on atoms (cartesian axes, Ry/au):

     atom    1 type  1   force =    -0.00005919    0.00003417    0.00000000
     atom    2 type  2   force =     0.00002959   -0.00001709   -0.00003194
     atom    3 type  2   force =     0.00002959   -0.00001709    0.00003194

     Total force =     0.000095     Total SCF correction =     0.013539
     SCF correction compared to forces is large: reduce conv_thr to get better values


     Computing stress (Cartesian axis) and pressure


     negative rho (up, down):  4.173E-04 0.000E+00
          total   stress  (Ry/bohr**3)                   (kbar)     P=       -0.48
  -0.00000170   0.00000030   0.00000000           -0.25        0.04        0.00
   0.00000030  -0.00000134   0.00000000            0.04       -0.20        0.00
   0.00000000   0.00000000  -0.00000679            0.00        0.00       -1.00

     Message from routine bfgs:
     history already reset at previous step: stopping

     bfgs converged in  28 scf cycles and  13 bfgs steps
     (criteria: energy <  1.0E-04 Ry, force <  1.0E-03Ry/Bohr, cell <  5.0E-01kbar)

     End of BFGS Geometry Optimization

     Final enthalpy =    -185.0727077640 Ry
Begin final coordinates
     new unit-cell volume =   1359.27468 a.u.^3 (   201.42372 Ang^3 )
     density =      1.31962 g/cm^3

CELL_PARAMETERS (angstrom)
   3.478437280  -0.002234945  -0.000000000
  -1.741154159   3.011297578  -0.000000000
   0.000000000   0.000000000  19.236858087

ATOMIC_POSITIONS (angstrom)
Mo           -0.0014659474        2.0068881204        9.6184290436
S             1.7386699671        1.0022201817        8.2295009511
S             1.7386699671        1.0022201817       11.0073571362
End final coordinates



     Writing output data file ./pwscf.save/

     Final scf calculation at the relaxed structure.
     The G-vectors are recalculated for the final unit cell
     Results may differ from those at the preceding step.

     G-vector sticks info
     --------------------
     sticks:   dense  smooth     PW     G-vecs:    dense   smooth      PW
     Sum         421     421    109                38125    38125    4761



     bravais-lattice index     =            0
     lattice parameter (alat)  =       6.0288  a.u.
     unit-cell volume          =    1359.2747 (a.u.)^3
     number of atoms/cell      =            3
     number of atomic types    =            2
     number of electrons       =        26.00
     number of Kohn-Sham states=           13
     kinetic-energy cutoff     =      35.0000  Ry
     charge density cutoff     =     140.0000  Ry
     convergence threshold     =      5.0E-05
     mixing beta               =       0.7000
     number of iterations used =            8  plain     mixing
     Exchange-correlation=  SLA  PW   PBX  PBC
                           (   1   4   3   4   0   0   0)

     celldm(1)=   6.028831  celldm(2)=   0.000000  celldm(3)=   0.000000
     celldm(4)=   0.000000  celldm(5)=   0.000000  celldm(6)=   0.000000

     crystal axes: (cart. coord. in units of alat)
               a(1) = (   1.090310  -0.000701  -0.000000 )  
               a(2) = (  -0.545762   0.943886  -0.000000 )  
               a(3) = (   0.000000   0.000000   6.029758 )  

     reciprocal axes: (cart. coord. in units 2 pi/alat)
               b(1) = (  0.917511  0.530512 -0.000000 )  
               b(2) = (  0.000681  1.059844 -0.000000 )  
               b(3) = (  0.000000  0.000000  0.165844 )  


     PseudoPot. # 1 for Mo read from file:
     ../../pseudos/Mo_ONCV_PBE-1.0.oncvpsp.upf
     MD5 check sum: 1b5d28e075c9ccadda658a603575cd1f
     Pseudo is Norm-conserving, Zval = 14.0
     Generated using ONCVPSP code by D. R. Hamann
     Using radial grid of 1526 points,  6 beta functions with: 
                l(1) =   0
                l(2) =   0
                l(3) =   1
                l(4) =   1
                l(5) =   2
                l(6) =   2

     PseudoPot. # 2 for S  read from file:
     ../../pseudos/s_pbe_v1.4.uspp.F.UPF
     MD5 check sum: 88d86576ff6df21479756cfb9bdac1df
     Pseudo is Ultrasoft + core correction, Zval =  6.0
     Generated by new atomic code, or converted to UPF format
     Using radial grid of  907 points,  6 beta functions with: 
                l(1) =   0
                l(2) =   0
                l(3) =   1
                l(4) =   1
                l(5) =   2
                l(6) =   2
     Q(r) pseudized with  8 coefficients,  rinner =    1.300   1.300   1.300
                                                       1.300   1.300

     atomic species   valence    mass     pseudopotential
        Mo            14.00    95.95000     Mo( 1.00)
        S              6.00    32.06000     S ( 1.00)

      4 Sym. Ops. (no inversion) found



   Cartesian axes

     site n.     atom                  positions (alat units)
         1           Mo  tau(   1) = (  -0.0004595   0.6290554   3.0148791  )
         2           S   tau(   2) = (   0.5449829   0.3141441   2.5795221  )
         3           S   tau(   3) = (   0.5449829   0.3141441   3.4502361  )

     number of k points=     1
                       cart. coord. in units 2pi/alat
        k(    1) = (   0.0000000   0.0000000   0.0000000), wk =   2.0000000

     Dense  grid:    19063 G-vectors     FFT dimensions: (  25,  25, 144)

     Estimated max dynamical RAM per process >      79.49 MB

     Initial potential from superposition of free atoms

     starting charge   25.99894, renormalised to   26.00000

     negative rho (up, down):  3.126E-04 0.000E+00
     Starting wfcs are   18 randomized atomic wfcs

     total cpu time spent up to now is      137.0 secs

     Self-consistent Calculation

     iteration #  1     ecut=    35.00 Ry     beta= 0.70
     Davidson diagonalization with overlap
     ethr =  1.00E-06,  avg # of iterations =  8.0

     negative rho (up, down):  2.084E-04 0.000E+00

     total cpu time spent up to now is      137.3 secs

     total energy              =    -184.86376117 Ry
     Harris-Foulkes estimate   =    -185.17085422 Ry
     estimated scf accuracy    <       0.48073766 Ry

     iteration #  2     ecut=    35.00 Ry     beta= 0.70
     Davidson diagonalization with overlap
     ethr =  1.85E-03,  avg # of iterations =  4.0

     negative rho (up, down):  1.658E-04 0.000E+00

     total cpu time spent up to now is      137.5 secs

     total energy              =    -184.60822332 Ry
     Harris-Foulkes estimate   =    -185.53990523 Ry
     estimated scf accuracy    <       3.06268521 Ry

     iteration #  3     ecut=    35.00 Ry     beta= 0.70
     Davidson diagonalization with overlap
     ethr =  1.85E-03,  avg # of iterations =  5.0

     negative rho (up, down):  1.541E-04 0.000E+00

     total cpu time spent up to now is      137.7 secs

     total energy              =    -185.06512497 Ry
     Harris-Foulkes estimate   =    -185.07799814 Ry
     estimated scf accuracy    <       0.05492292 Ry

     iteration #  4     ecut=    35.00 Ry     beta= 0.70
     Davidson diagonalization with overlap
     ethr =  2.11E-04,  avg # of iterations =  4.0

     negative rho (up, down):  1.603E-04 0.000E+00

     total cpu time spent up to now is      137.9 secs

     total energy              =    -185.07319304 Ry
     Harris-Foulkes estimate   =    -185.07431141 Ry
     estimated scf accuracy    <       0.00313512 Ry

     iteration #  5     ecut=    35.00 Ry     beta= 0.70
     Davidson diagonalization with overlap
     ethr =  1.21E-05,  avg # of iterations =  2.0

     negative rho (up, down):  1.688E-04 0.000E+00

     total cpu time spent up to now is      138.0 secs

     total energy              =    -185.07369351 Ry
     Harris-Foulkes estimate   =    -185.07367927 Ry
     estimated scf accuracy    <       0.00022209 Ry

     iteration #  6     ecut=    35.00 Ry     beta= 0.70
     Davidson diagonalization with overlap
     ethr =  8.54E-07,  avg # of iterations =  4.0

     negative rho (up, down):  1.683E-04 0.000E+00

     total cpu time spent up to now is      138.2 secs

     total energy              =    -185.07374716 Ry
     Harris-Foulkes estimate   =    -185.07389565 Ry
     estimated scf accuracy    <       0.00079500 Ry

     iteration #  7     ecut=    35.00 Ry     beta= 0.70
     Davidson diagonalization with overlap
     ethr =  8.54E-07,  avg # of iterations =  4.0

     negative rho (up, down):  1.660E-04 0.000E+00

     total cpu time spent up to now is      138.4 secs

     total energy              =    -185.07375190 Ry
     Harris-Foulkes estimate   =    -185.07384752 Ry
     estimated scf accuracy    <       0.00036854 Ry

     iteration #  8     ecut=    35.00 Ry     beta= 0.70
     Davidson diagonalization with overlap
     ethr =  8.54E-07,  avg # of iterations =  3.0

     negative rho (up, down):  1.667E-04 0.000E+00

     total cpu time spent up to now is      138.6 secs

     End of self-consistent calculation

          k = 0.0000 0.0000 0.0000 (  2381 PWs)   bands (ev):

   -62.2877 -36.6000 -36.5927 -35.9802 -16.4634 -14.7838  -7.5120  -5.9206
    -5.9086  -4.5323  -4.5299  -3.0254  -0.8492

     highest occupied level (ev):    -0.8492

!    total energy              =    -185.07379791 Ry
     Harris-Foulkes estimate   =    -185.07380305 Ry
     estimated scf accuracy    <       0.00000638 Ry

     The total energy is the sum of the following terms:

     one-electron contribution =    -937.56118852 Ry
     hartree contribution      =     467.91885761 Ry
     xc contribution           =     -32.62710021 Ry
     ewald contribution        =     317.19563321 Ry

     convergence has been achieved in   8 iterations

     negative rho (up, down):  1.667E-04 0.000E+00

     Forces acting on atoms (cartesian axes, Ry/au):

     atom    1 type  1   force =     0.00005785   -0.00003340   -0.00000000
     atom    2 type  2   force =    -0.00002892    0.00001670   -0.00067268
     atom    3 type  2   force =    -0.00002892    0.00001670    0.00067268

     Total force =     0.000955     Total SCF correction =     0.003660
     SCF correction compared to forces is large: reduce conv_thr to get better values


     Computing stress (Cartesian axis) and pressure


     negative rho (up, down):  1.667E-04 0.000E+00
          total   stress  (Ry/bohr**3)                   (kbar)     P=        0.92
   0.00001066   0.00000014   0.00000000            1.57        0.02        0.00
   0.00000014   0.00001082   0.00000000            0.02        1.59        0.00
  -0.00000000  -0.00000000  -0.00000269           -0.00       -0.00       -0.40


     Writing output data file ./pwscf.save/

     init_run     :      2.45s CPU      2.51s WALL (       2 calls)
     electrons    :     58.81s CPU     57.16s WALL (      29 calls)
     update_pot   :     29.89s CPU     30.22s WALL (      27 calls)
     forces       :     14.99s CPU     15.31s WALL (      29 calls)
     stress       :     34.51s CPU     33.42s WALL (      29 calls)

     Called by init_run:
     wfcinit      :      0.03s CPU      0.04s WALL (       2 calls)
     potinit      :      0.72s CPU      0.74s WALL (       2 calls)
     hinit0       :      1.61s CPU      1.62s WALL (       2 calls)

     Called by electrons:
     c_bands      :     11.63s CPU     11.32s WALL (     311 calls)
     sum_band     :     24.01s CPU     17.12s WALL (     311 calls)
     v_of_rho     :      9.38s CPU     10.64s WALL (     339 calls)
     newd         :     14.55s CPU     18.09s WALL (     339 calls)
     mix_rho      :      1.03s CPU      2.09s WALL (     311 calls)

     Called by c_bands:
     init_us_2    :      0.41s CPU      0.41s WALL (     624 calls)
     regterg      :     10.38s CPU     10.05s WALL (     311 calls)

     Called by sum_band:
     sum_band:bec :      0.00s CPU      0.00s WALL (     311 calls)
     addusdens    :     21.69s CPU     14.77s WALL (     311 calls)

     Called by *egterg:
     h_psi        :      8.74s CPU      8.64s WALL (    1490 calls)
     s_psi        :      0.31s CPU      0.16s WALL (    1490 calls)
     g_psi        :      0.06s CPU      0.07s WALL (    1177 calls)
     rdiaghg      :      0.30s CPU      0.30s WALL (    1460 calls)

     Called by h_psi:
     h_psi:calbec :      0.35s CPU      0.36s WALL (    1490 calls)
     vloc_psi     :      7.94s CPU      8.02s WALL (    1490 calls)
     add_vuspsi   :      0.42s CPU      0.22s WALL (    1490 calls)

     General routines
     calbec       :      0.46s CPU      0.48s WALL (    1946 calls)
     fft          :      3.78s CPU      3.82s WALL (    3659 calls)
     ffts         :      0.33s CPU      0.34s WALL (     311 calls)
     fftw         :      8.01s CPU      8.09s WALL (   16023 calls)


     PWSCF        :   2m22.22s CPU   2m20.52s WALL


   This run was terminated on:  16:48:45  26Sep2020            

=------------------------------------------------------------------------------=
   JOB DONE.
=------------------------------------------------------------------------------=
