
     Program PWSCF v.6.5 starts on 26Sep2020 at 17:39: 0 

     This program is part of the open-source Quantum ESPRESSO suite
     for quantum simulation of materials; please cite
         "P. Giannozzi et al., J. Phys.:Condens. Matter 21 395502 (2009);
         "P. Giannozzi et al., J. Phys.:Condens. Matter 29 465901 (2017);
          URL http://www.quantum-espresso.org", 
     in publications or presentations arising from this work. More details at
     http://www.quantum-espresso.org/quote

     Serial version
     Waiting for input...
     Reading input from standard input

     Current dimensions of program PWSCF are:
     Max number of different atomic species (ntypx) = 10
     Max number of k-points (npk) =  40000
     Max angular momentum in pseudopotentials (lmaxx) =  3

     gamma-point specific algorithms are used
     Found symmetry operation: I + ( -0.0000  0.5000  0.0000)
     This is a supercell, fractional translations are disabled
     Message from routine setup:
     using ibrav=0 with symmetry is DISCOURAGED, use correct ibrav instead

     G-vector sticks info
     --------------------
     sticks:   dense  smooth     PW     G-vecs:    dense   smooth      PW
     Sum        1393    1393    349               133055   133055   16607



     bravais-lattice index     =            0
     lattice parameter (alat)  =      12.0577  a.u.
     unit-cell volume          =    4758.6714 (a.u.)^3
     number of atoms/cell      =           12
     number of atomic types    =            2
     number of electrons       =       104.00
     number of Kohn-Sham states=           52
     kinetic-energy cutoff     =      35.0000  Ry
     charge density cutoff     =     140.0000  Ry
     convergence threshold     =      5.0E-03
     mixing beta               =       0.7000
     number of iterations used =            8  plain     mixing
     Exchange-correlation=  SLA  PW   PBX  PBC
                           (   1   4   3   4   0   0   0)
     nstep                     =           50


     celldm(1)=  12.057662  celldm(2)=   0.000000  celldm(3)=   0.000000
     celldm(4)=   0.000000  celldm(5)=   0.000000  celldm(6)=   0.000000

     crystal axes: (cart. coord. in units of alat)
               a(1) = (   1.000000   0.000000   0.000000 )  
               a(2) = (  -0.500000   0.866025   0.000000 )  
               a(3) = (   0.000000   0.000000   3.134482 )  

     reciprocal axes: (cart. coord. in units 2 pi/alat)
               b(1) = (  1.000000  0.577350 -0.000000 )  
               b(2) = (  0.000000  1.154701  0.000000 )  
               b(3) = (  0.000000 -0.000000  0.319032 )  


     PseudoPot. # 1 for Mo read from file:
     ../../pseudos/Mo_ONCV_PBE-1.0.oncvpsp.upf
     MD5 check sum: 1b5d28e075c9ccadda658a603575cd1f
     Pseudo is Norm-conserving, Zval = 14.0
     Generated using ONCVPSP code by D. R. Hamann
     Using radial grid of 1526 points,  6 beta functions with: 
                l(1) =   0
                l(2) =   0
                l(3) =   1
                l(4) =   1
                l(5) =   2
                l(6) =   2

     PseudoPot. # 2 for S  read from file:
     ../../pseudos/s_pbe_v1.4.uspp.F.UPF
     MD5 check sum: 88d86576ff6df21479756cfb9bdac1df
     Pseudo is Ultrasoft + core correction, Zval =  6.0
     Generated by new atomic code, or converted to UPF format
     Using radial grid of  907 points,  6 beta functions with: 
                l(1) =   0
                l(2) =   0
                l(3) =   1
                l(4) =   1
                l(5) =   2
                l(6) =   2
     Q(r) pseudized with  8 coefficients,  rinner =    1.300   1.300   1.300
                                                       1.300   1.300

     atomic species   valence    mass     pseudopotential
        Mo            14.00    95.95000     Mo( 1.00)
        S              6.00    32.06000     S ( 1.00)

     12 Sym. Ops. (no inversion) found



   Cartesian axes

     site n.     atom                  positions (alat units)
         1           Mo  tau(   1) = (  -0.0000025   0.2886766   1.5672409  )
         2           S   tau(   2) = (   0.2500025   0.1443361   1.3219990  )
         3           S   tau(   3) = (   0.2500025   0.1443361   1.8124828  )
         4           Mo  tau(   4) = (  -0.2500025   0.7216893   1.5672409  )
         5           S   tau(   5) = (   0.0000025   0.5773488   1.3219990  )
         6           S   tau(   6) = (   0.0000025   0.5773488   1.8124828  )
         7           Mo  tau(   7) = (   0.4999975   0.2886766   1.5672409  )
         8           S   tau(   8) = (   0.7500025   0.1443361   1.3219990  )
         9           S   tau(   9) = (   0.7500025   0.1443361   1.8124828  )
        10           Mo  tau(  10) = (   0.2499975   0.7216893   1.5672409  )
        11           S   tau(  11) = (   0.5000025   0.5773488   1.3219990  )
        12           S   tau(  12) = (   0.5000025   0.5773488   1.8124828  )

     number of k points=     1
                       cart. coord. in units 2pi/alat
        k(    1) = (   0.0000000   0.0000000   0.0000000), wk =   2.0000000

     Dense  grid:    66528 G-vectors     FFT dimensions: (  45,  45, 144)

     Estimated max dynamical RAM per process >     314.91 MB

     Initial potential from superposition of free atoms

     starting charge  103.99576, renormalised to  104.00000

     negative rho (up, down):  1.231E-03 0.000E+00
     Starting wfcs are   72 randomized atomic wfcs

     total cpu time spent up to now is        4.2 secs

     Self-consistent Calculation

     iteration #  1     ecut=    35.00 Ry     beta= 0.70
     Davidson diagonalization with overlap
     ethr =  1.00E-02,  avg # of iterations =  3.0

     Threshold (ethr) on eigenvalues was too large:
     Diagonalizing with lowered threshold

     Davidson diagonalization with overlap
     ethr =  3.85E-04,  avg # of iterations =  2.0

     negative rho (up, down):  1.000E-03 0.000E+00

     total cpu time spent up to now is        6.1 secs

     total energy              =    -741.79694611 Ry
     Harris-Foulkes estimate   =    -742.04594563 Ry
     estimated scf accuracy    <       0.41840699 Ry

     iteration #  2     ecut=    35.00 Ry     beta= 0.70
     Davidson diagonalization with overlap
     ethr =  4.02E-04,  avg # of iterations =  3.0

     negative rho (up, down):  9.177E-04 0.000E+00

     total cpu time spent up to now is        7.3 secs

     total energy              =    -741.77834832 Ry
     Harris-Foulkes estimate   =    -742.00784802 Ry
     estimated scf accuracy    <       0.43787107 Ry

     iteration #  3     ecut=    35.00 Ry     beta= 0.70
     Davidson diagonalization with overlap
     ethr =  4.02E-04,  avg # of iterations =  5.0

     negative rho (up, down):  8.749E-04 0.000E+00

     total cpu time spent up to now is        8.5 secs

     total energy              =    -741.87146612 Ry
     Harris-Foulkes estimate   =    -741.96736864 Ry
     estimated scf accuracy    <       0.29211981 Ry

     iteration #  4     ecut=    35.00 Ry     beta= 0.70
     Davidson diagonalization with overlap
     ethr =  2.81E-04,  avg # of iterations =  3.0

     negative rho (up, down):  8.685E-04 0.000E+00

     total cpu time spent up to now is        9.6 secs

     End of self-consistent calculation

          k = 0.0000 0.0000 0.0000 (  8304 PWs)   bands (ev):

   -62.1272 -62.0956 -62.0864 -62.0820 -36.5630 -36.5608 -36.5561 -36.2821
   -36.2803 -36.2758 -36.1946 -36.1938 -36.0697 -36.0003 -35.9918 -35.9872
   -15.4160 -14.0912 -13.5769 -13.5763 -13.5754 -13.3675 -13.3667 -13.3656
    -7.1084  -7.1076  -7.1070  -6.9186  -6.0819  -6.0812  -6.0807  -5.3798
    -5.3790  -5.3783  -4.4739  -4.4731  -4.4716  -4.0460  -4.0458  -3.1230
    -3.1229  -3.1223  -3.0144  -2.8090  -2.8087  -2.3527  -2.3524  -2.3515
    -1.9708  -1.9704  -1.9701  -1.1915

     highest occupied level (ev):    -1.1915

!    total energy              =    -741.91681901 Ry
     Harris-Foulkes estimate   =    -741.91976780 Ry
     estimated scf accuracy    <       0.00438873 Ry

     The total energy is the sum of the following terms:

     one-electron contribution =   -4451.04504257 Ry
     hartree contribution      =    2224.15421298 Ry
     xc contribution           =    -130.22419853 Ry
     ewald contribution        =    1615.19820911 Ry

     convergence has been achieved in   4 iterations

     negative rho (up, down):  8.685E-04 0.000E+00

     Forces acting on atoms (cartesian axes, Ry/au):

     atom    1 type  1   force =     0.00000000   -0.00000626    0.00000000
     atom    2 type  2   force =    -0.00018531   -0.00010699   -0.01691452
     atom    3 type  2   force =    -0.00018531   -0.00010699    0.01691452
     atom    4 type  1   force =    -0.00000542    0.00000313    0.00000000
     atom    5 type  2   force =     0.00000000    0.00000000   -0.01669735
     atom    6 type  2   force =    -0.00000000   -0.00000000    0.01669735
     atom    7 type  1   force =     0.00000000   -0.00000000    0.00000000
     atom    8 type  2   force =     0.00018531   -0.00010699   -0.01691452
     atom    9 type  2   force =     0.00018531   -0.00010699    0.01691452
     atom   10 type  1   force =     0.00000542    0.00000313    0.00000000
     atom   11 type  2   force =    -0.00000000    0.00021398   -0.01691452
     atom   12 type  2   force =    -0.00000000    0.00021398    0.01691452

     Total force =     0.047692     Total SCF correction =     0.183501
     SCF correction compared to forces is large: reduce conv_thr to get better values


     Computing stress (Cartesian axis) and pressure


     negative rho (up, down):  8.685E-04 0.000E+00
          total   stress  (Ry/bohr**3)                   (kbar)     P=       -2.02
  -0.00004818  -0.00000000  -0.00000000           -7.09       -0.00       -0.00
   0.00000000  -0.00004818  -0.00000000            0.00       -7.09       -0.00
   0.00000000  -0.00000000   0.00005523            0.00       -0.00        8.12


     BFGS Geometry Optimization

     number of scf cycles    =   1
     number of bfgs steps    =   0

     enthalpy new            =    -741.9168190075 Ry

     new trust radius        =       0.0190498401 bohr
     new conv_thr            =       0.0050000000 Ry

     new unit-cell volume =   4753.76827 a.u.^3 (   704.43577 Ang^3 )
     density =      1.50931 g/cm^3

CELL_PARAMETERS (angstrom)
   6.372953728   0.000000000   0.000000000
  -3.186476864   5.519139826  -0.000000000
  -0.000000000  -0.000000000  20.027615218

ATOMIC_POSITIONS (angstrom)
Mo           -0.0000159324        1.8397191630       10.0138076091
S             1.5931564199        0.9197908907        8.4378838569
S             1.5931564199        0.9197908907       11.5897313614
Mo           -1.5932572317        4.5992940421       10.0138076091
S             0.0000159324        3.6794173518        8.4379989348
S             0.0000159324        3.6794173518       11.5896162835
Mo            3.1864609317        1.8397224738       10.0138076091
S             4.7798291730        0.9197908907        8.4378838569
S             4.7798291730        0.9197908907       11.5897313614
Mo            1.5932253669        4.5992940421       10.0138076091
S             3.1864927964        3.6795304484        8.4378838569
S             3.1864927964        3.6795304484       11.5897313614



     Writing output data file ./pwscf.save/
     NEW-OLD atomic charge density approx. for the potential

     negative rho (up, down):  9.230E-04 0.000E+00
     extrapolated charge  103.89274, renormalised to  104.00000

     total cpu time spent up to now is       21.5 secs

     Self-consistent Calculation

     iteration #  1     ecut=    35.00 Ry     beta= 0.70
     Davidson diagonalization with overlap
     ethr =  1.00E-06,  avg # of iterations =  8.0

     negative rho (up, down):  9.176E-04 0.000E+00

     total cpu time spent up to now is       23.1 secs

     total energy              =    -741.83244227 Ry
     Harris-Foulkes estimate   =    -746.39579648 Ry
     estimated scf accuracy    <       0.10813623 Ry

     iteration #  2     ecut=    35.00 Ry     beta= 0.70
     Davidson diagonalization with overlap
     ethr =  1.04E-04,  avg # of iterations =  5.0

     negative rho (up, down):  9.046E-04 0.000E+00

     total cpu time spent up to now is       24.5 secs

     total energy              =    -741.71754665 Ry
     Harris-Foulkes estimate   =    -742.20539120 Ry
     estimated scf accuracy    <       2.14044118 Ry

     iteration #  3     ecut=    35.00 Ry     beta= 0.70
     Davidson diagonalization with overlap
     ethr =  1.04E-04,  avg # of iterations =  6.0

     negative rho (up, down):  9.009E-04 0.000E+00

     total cpu time spent up to now is       25.8 secs

     total energy              =    -741.91979303 Ry
     Harris-Foulkes estimate   =    -741.93071017 Ry
     estimated scf accuracy    <       0.06685954 Ry

     iteration #  4     ecut=    35.00 Ry     beta= 0.70
     Davidson diagonalization with overlap
     ethr =  6.43E-05,  avg # of iterations =  3.0

     negative rho (up, down):  8.944E-04 0.000E+00

     total cpu time spent up to now is       26.8 secs

     total energy              =    -741.92118339 Ry
     Harris-Foulkes estimate   =    -741.92358021 Ry
     estimated scf accuracy    <       0.01635994 Ry

     iteration #  5     ecut=    35.00 Ry     beta= 0.70
     Davidson diagonalization with overlap
     ethr =  1.57E-05,  avg # of iterations =  4.0

     negative rho (up, down):  8.816E-04 0.000E+00

     total cpu time spent up to now is       27.9 secs

     End of self-consistent calculation

          k = 0.0000 0.0000 0.0000 (  8304 PWs)   bands (ev):

   -62.0993 -62.0689 -62.0501 -62.0411 -36.4963 -36.4900 -36.4806 -36.2153
   -36.2126 -36.2025 -36.1243 -36.1229 -36.0542 -35.9907 -35.9735 -35.9636
   -15.2245 -13.9493 -13.3695 -13.3661 -13.3654 -13.1908 -13.1863 -13.1850
    -6.9474  -6.9466  -6.9446  -6.7627  -5.9501  -5.9495  -5.9477  -5.2282
    -5.2255  -5.2246  -4.2939  -4.2916  -4.2878  -3.8348  -3.8347  -3.0348
    -3.0328  -3.0325  -2.9169  -2.6295  -2.6293  -2.1574  -2.1568  -2.1539
    -1.8549  -1.8534  -1.8524  -1.1609

     highest occupied level (ev):    -1.1609

!    total energy              =    -741.91838625 Ry
     Harris-Foulkes estimate   =    -741.92253699 Ry
     estimated scf accuracy    <       0.00443718 Ry

     The total energy is the sum of the following terms:

     one-electron contribution =   -4455.65055061 Ry
     hartree contribution      =    2225.23389949 Ry
     xc contribution           =    -130.13638035 Ry
     ewald contribution        =    1618.63464521 Ry

     convergence has been achieved in   5 iterations

     negative rho (up, down):  8.816E-04 0.000E+00

     Forces acting on atoms (cartesian axes, Ry/au):

     atom    1 type  1   force =     0.00000000    0.00011930    0.00000000
     atom    2 type  2   force =    -0.00047851   -0.00027627   -0.01515483
     atom    3 type  2   force =    -0.00047851   -0.00027627    0.01515483
     atom    4 type  1   force =     0.00010332   -0.00005965   -0.00000000
     atom    5 type  2   force =     0.00000000   -0.00000000   -0.01487017
     atom    6 type  2   force =    -0.00000000    0.00000000    0.01487017
     atom    7 type  1   force =     0.00000000    0.00000000    0.00000000
     atom    8 type  2   force =     0.00047851   -0.00027627   -0.01515483
     atom    9 type  2   force =     0.00047851   -0.00027627    0.01515483
     atom   10 type  1   force =    -0.00010332   -0.00005965   -0.00000000
     atom   11 type  2   force =     0.00000000    0.00055254   -0.01515483
     atom   12 type  2   force =     0.00000000    0.00055254    0.01515483

     Total force =     0.042686     Total SCF correction =     0.184363
     SCF correction compared to forces is large: reduce conv_thr to get better values


     Computing stress (Cartesian axis) and pressure


     negative rho (up, down):  8.816E-04 0.000E+00
          total   stress  (Ry/bohr**3)                   (kbar)     P=       -5.60
  -0.00003412   0.00000000  -0.00000000           -5.02        0.00       -0.00
   0.00000000  -0.00003412  -0.00000000            0.00       -5.02       -0.00
   0.00000000  -0.00000000  -0.00004594            0.00       -0.00       -6.76


     number of scf cycles    =   2
     number of bfgs steps    =   1

     enthalpy old            =    -741.9168190075 Ry
     enthalpy new            =    -741.9183862532 Ry

     CASE: enthalpy_new < enthalpy_old

     new trust radius        =       0.0285206550 bohr
     new conv_thr            =       0.0007577413 Ry

     new unit-cell volume =   4736.84521 a.u.^3 (   701.92803 Ang^3 )
     density =      1.51470 g/cm^3

CELL_PARAMETERS (angstrom)
   6.361391620   0.000000000   0.000000000
  -3.180695810   5.509126746  -0.000000000
  -0.000000000  -0.000000000  20.028927270

ATOMIC_POSITIONS (angstrom)
Mo           -0.0000159035        1.8364382518       10.0144636348
S             1.5899457110        0.9179372205        8.4233477211
S             1.5899457110        0.9179372205       11.6055795484
Mo           -1.5903174865        4.5909213929       10.0144636348
S             0.0000159035        3.6727419820        8.4237018151
S             0.0000159035        3.6727419820       11.6052254544
Mo            3.1806799063        1.8363847639       10.0144636348
S             4.7714777155        0.9179372205        8.4233477211
S             4.7714777155        0.9179372205       11.6055795484
Mo            1.5902856795        4.5909213929       10.0144636348
S             3.1807117132        3.6732247593        8.4233477211
S             3.1807117132        3.6732247593       11.6055795484



     Writing output data file ./pwscf.save/
     NEW-OLD atomic charge density approx. for the potential

     negative rho (up, down):  9.289E-04 0.000E+00
     extrapolated charge  103.62846, renormalised to  104.00000

     total cpu time spent up to now is       39.8 secs

     Self-consistent Calculation

     iteration #  1     ecut=    35.00 Ry     beta= 0.70
     Davidson diagonalization with overlap
     ethr =  1.00E-06,  avg # of iterations = 11.0

     negative rho (up, down):  9.530E-04 0.000E+00

     total cpu time spent up to now is       41.7 secs

     total energy              =    -741.14393717 Ry
     Harris-Foulkes estimate   =    -757.46553290 Ry
     estimated scf accuracy    <       0.88040760 Ry

     iteration #  2     ecut=    35.00 Ry     beta= 0.70
     Davidson diagonalization with overlap
     ethr =  8.47E-04,  avg # of iterations =  5.0

     negative rho (up, down):  6.028E-04 0.000E+00

     total cpu time spent up to now is       43.0 secs

     total energy              =    -740.70003343 Ry
     Harris-Foulkes estimate   =    -744.02892916 Ry
     estimated scf accuracy    <      13.33088227 Ry

     iteration #  3     ecut=    35.00 Ry     beta= 0.70
     Davidson diagonalization with overlap
     ethr =  8.47E-04,  avg # of iterations =  5.0

     negative rho (up, down):  6.421E-04 0.000E+00

     total cpu time spent up to now is       44.3 secs

     total energy              =    -741.91709674 Ry
     Harris-Foulkes estimate   =    -741.94473587 Ry
     estimated scf accuracy    <       0.35086142 Ry

     iteration #  4     ecut=    35.00 Ry     beta= 0.70
     Davidson diagonalization with overlap
     ethr =  3.37E-04,  avg # of iterations =  5.0

     negative rho (up, down):  6.753E-04 0.000E+00

     total cpu time spent up to now is       45.4 secs

     total energy              =    -741.92891628 Ry
     Harris-Foulkes estimate   =    -741.93989260 Ry
     estimated scf accuracy    <       0.19541386 Ry

     iteration #  5     ecut=    35.00 Ry     beta= 0.70
     Davidson diagonalization with overlap
     ethr =  1.88E-04,  avg # of iterations =  1.0

     negative rho (up, down):  7.816E-04 0.000E+00

     total cpu time spent up to now is       46.4 secs

     total energy              =    -741.91341398 Ry
     Harris-Foulkes estimate   =    -741.93196369 Ry
     estimated scf accuracy    <       0.14643469 Ry

     iteration #  6     ecut=    35.00 Ry     beta= 0.70
     Davidson diagonalization with overlap
     ethr =  1.41E-04,  avg # of iterations =  3.0

     negative rho (up, down):  7.933E-04 0.000E+00

     total cpu time spent up to now is       47.4 secs

     total energy              =    -741.92131755 Ry
     Harris-Foulkes estimate   =    -741.92240646 Ry
     estimated scf accuracy    <       0.03290486 Ry

     iteration #  7     ecut=    35.00 Ry     beta= 0.70
     Davidson diagonalization with overlap
     ethr =  3.16E-05,  avg # of iterations =  4.0

     negative rho (up, down):  7.925E-04 0.000E+00

     total cpu time spent up to now is       48.5 secs

     total energy              =    -741.92481483 Ry
     Harris-Foulkes estimate   =    -741.92480274 Ry
     estimated scf accuracy    <       0.01354222 Ry

     iteration #  8     ecut=    35.00 Ry     beta= 0.70
     Davidson diagonalization with overlap
     ethr =  1.30E-05,  avg # of iterations =  4.0

     negative rho (up, down):  7.884E-04 0.000E+00

     total cpu time spent up to now is       49.6 secs

     total energy              =    -741.92551683 Ry
     Harris-Foulkes estimate   =    -741.92535380 Ry
     estimated scf accuracy    <       0.01043825 Ry

     iteration #  9     ecut=    35.00 Ry     beta= 0.70
     Davidson diagonalization with overlap
     ethr =  1.00E-05,  avg # of iterations =  1.0

     negative rho (up, down):  7.918E-04 0.000E+00

     total cpu time spent up to now is       50.6 secs

     total energy              =    -741.92576772 Ry
     Harris-Foulkes estimate   =    -741.92557571 Ry
     estimated scf accuracy    <       0.01078301 Ry

     iteration # 10     ecut=    35.00 Ry     beta= 0.70
     Davidson diagonalization with overlap
     ethr =  1.00E-05,  avg # of iterations =  1.0

     negative rho (up, down):  8.915E-04 0.000E+00

     total cpu time spent up to now is       51.6 secs

     total energy              =    -741.92466142 Ry
     Harris-Foulkes estimate   =    -741.92580633 Ry
     estimated scf accuracy    <       0.01134577 Ry

     iteration # 11     ecut=    35.00 Ry     beta= 0.70
     Davidson diagonalization with overlap
     ethr =  1.00E-05,  avg # of iterations =  2.0

     negative rho (up, down):  8.906E-04 0.000E+00

     total cpu time spent up to now is       52.7 secs

     total energy              =    -741.92436272 Ry
     Harris-Foulkes estimate   =    -741.92495879 Ry
     estimated scf accuracy    <       0.00759317 Ry

     iteration # 12     ecut=    35.00 Ry     beta= 0.70
     Davidson diagonalization with overlap
     ethr =  7.30E-06,  avg # of iterations =  1.0

     negative rho (up, down):  8.987E-04 0.000E+00

     total cpu time spent up to now is       53.7 secs

     total energy              =    -741.92392738 Ry
     Harris-Foulkes estimate   =    -741.92448561 Ry
     estimated scf accuracy    <       0.00543496 Ry

     iteration # 13     ecut=    35.00 Ry     beta= 0.70
     Davidson diagonalization with overlap
     ethr =  5.23E-06,  avg # of iterations =  1.0

     negative rho (up, down):  8.973E-04 0.000E+00

     total cpu time spent up to now is       54.7 secs

     total energy              =    -741.92390615 Ry
     Harris-Foulkes estimate   =    -741.92405776 Ry
     estimated scf accuracy    <       0.00318897 Ry

     iteration # 14     ecut=    35.00 Ry     beta= 0.70
     Davidson diagonalization with overlap
     ethr =  3.07E-06,  avg # of iterations =  3.0

     negative rho (up, down):  8.880E-04 0.000E+00

     total cpu time spent up to now is       55.8 secs

     total energy              =    -741.92380708 Ry
     Harris-Foulkes estimate   =    -741.92406798 Ry
     estimated scf accuracy    <       0.00158681 Ry

     iteration # 15     ecut=    35.00 Ry     beta= 0.70
     Davidson diagonalization with overlap
     ethr =  1.53E-06,  avg # of iterations =  4.0

     negative rho (up, down):  8.896E-04 0.000E+00

     total cpu time spent up to now is       56.9 secs

     End of self-consistent calculation

          k = 0.0000 0.0000 0.0000 (  8304 PWs)   bands (ev):

   -62.1371 -62.1061 -62.1001 -62.0764 -36.5288 -36.5205 -36.5175 -36.2493
   -36.2388 -36.2350 -36.1541 -36.1534 -36.0895 -36.0234 -36.0158 -35.9976
   -15.2068 -13.9714 -13.3376 -13.3311 -13.3246 -13.1839 -13.1772 -13.1705
    -6.9425  -6.9399  -6.9374  -6.7569  -5.9655  -5.9634  -5.9612  -5.2201
    -5.2172  -5.2143  -4.2478  -4.2458  -4.2442  -3.7781  -3.7781  -3.0842
    -3.0801  -3.0753  -2.9680  -2.5784  -2.5781  -2.1109  -2.1090  -2.1068
    -1.8790  -1.8781  -1.8773  -1.2404

     highest occupied level (ev):    -1.2404

!    total energy              =    -741.92393975 Ry
     Harris-Foulkes estimate   =    -741.92413678 Ry
     estimated scf accuracy    <       0.00021462 Ry

     The total energy is the sum of the following terms:

     one-electron contribution =   -4457.50679077 Ry
     hartree contribution      =    2227.70782771 Ry
     xc contribution           =    -130.14794161 Ry
     ewald contribution        =    1618.02296492 Ry

     convergence has been achieved in  15 iterations

     negative rho (up, down):  8.896E-04 0.000E+00

     Forces acting on atoms (cartesian axes, Ry/au):

     atom    1 type  1   force =    -0.00000000   -0.00027259    0.00000000
     atom    2 type  2   force =     0.00026430    0.00015259   -0.00061128
     atom    3 type  2   force =     0.00026430    0.00015259    0.00061128
     atom    4 type  1   force =    -0.00023607    0.00013629    0.00000000
     atom    5 type  2   force =     0.00000000   -0.00000000   -0.00098368
     atom    6 type  2   force =    -0.00000000    0.00000000    0.00098368
     atom    7 type  1   force =    -0.00000000    0.00000000    0.00000000
     atom    8 type  2   force =    -0.00026430    0.00015259   -0.00061128
     atom    9 type  2   force =    -0.00026430    0.00015259    0.00061128
     atom   10 type  1   force =     0.00023607    0.00013629    0.00000000
     atom   11 type  2   force =     0.00000000   -0.00030519   -0.00061128
     atom   12 type  2   force =     0.00000000   -0.00030519    0.00061128

     Total force =     0.002227     Total SCF correction =     0.033508
     SCF correction compared to forces is large: reduce conv_thr to get better values


     Computing stress (Cartesian axis) and pressure


     negative rho (up, down):  8.896E-04 0.000E+00
          total   stress  (Ry/bohr**3)                   (kbar)     P=       -2.20
  -0.00002090   0.00000000  -0.00000000           -3.07        0.00       -0.00
   0.00000000  -0.00002090  -0.00000000            0.00       -3.07       -0.00
   0.00000000   0.00000000  -0.00000297            0.00        0.00       -0.44


     number of scf cycles    =   3
     number of bfgs steps    =   2

     enthalpy old            =    -741.9183862532 Ry
     enthalpy new            =    -741.9239397486 Ry

     CASE: enthalpy_new < enthalpy_old

     new trust radius        =       0.0109008282 bohr
     new conv_thr            =       0.0000500000 Ry

     new unit-cell volume =   4729.38581 a.u.^3 (   700.82266 Ang^3 )
     density =      1.51709 g/cm^3

CELL_PARAMETERS (angstrom)
   6.356353865   0.000000000   0.000000000
  -3.178176932   5.504763922  -0.000000000
  -0.000000000  -0.000000000  20.029097091

ATOMIC_POSITIONS (angstrom)
Mo           -0.0000158909        1.8348227161       10.0145485456
S             1.5888199089        0.9172872529        8.4215299283
S             1.5888199089        0.9172872529       11.6075671629
Mo           -1.5891976851        4.5873663261       10.0145485456
S             0.0000158909        3.6698334401        8.4216793482
S             0.0000158909        3.6698334401       11.6074177430
Mo            3.1781610414        1.8349304820       10.0145485456
S             4.7675657374        0.9172872529        8.4215299283
S             4.7675657374        0.9172872529       11.6075671629
Mo            1.5891659033        4.5873663261       10.0145485456
S             3.1781928232        3.6701618925        8.4215299283
S             3.1781928232        3.6701618925       11.6075671629



     Writing output data file ./pwscf.save/
     NEW-OLD atomic charge density approx. for the potential

     negative rho (up, down):  8.820E-04 0.000E+00
     extrapolated charge  103.83597, renormalised to  104.00000

     total cpu time spent up to now is       68.7 secs

     Self-consistent Calculation

     iteration #  1     ecut=    35.00 Ry     beta= 0.70
     Davidson diagonalization with overlap
     ethr =  1.00E-06,  avg # of iterations =  9.0

     negative rho (up, down):  9.160E-04 0.000E+00

     total cpu time spent up to now is       70.4 secs

     total energy              =    -741.85837732 Ry
     Harris-Foulkes estimate   =    -748.75840636 Ry
     estimated scf accuracy    <       0.06729431 Ry

     iteration #  2     ecut=    35.00 Ry     beta= 0.70
     Davidson diagonalization with overlap
     ethr =  6.47E-05,  avg # of iterations =  6.0

     negative rho (up, down):  8.935E-04 0.000E+00

     total cpu time spent up to now is       71.8 secs

     total energy              =    -741.81618955 Ry
     Harris-Foulkes estimate   =    -742.11531436 Ry
     estimated scf accuracy    <       1.32296402 Ry

     iteration #  3     ecut=    35.00 Ry     beta= 0.70
     Davidson diagonalization with overlap
     ethr =  6.47E-05,  avg # of iterations =  5.0

     negative rho (up, down):  8.913E-04 0.000E+00

     total cpu time spent up to now is       73.3 secs

     total energy              =    -741.92719758 Ry
     Harris-Foulkes estimate   =    -741.92937506 Ry
     estimated scf accuracy    <       0.03558597 Ry

     iteration #  4     ecut=    35.00 Ry     beta= 0.70
     Davidson diagonalization with overlap
     ethr =  3.42E-05,  avg # of iterations =  1.0

     negative rho (up, down):  8.875E-04 0.000E+00

     total cpu time spent up to now is       74.3 secs

     total energy              =    -741.92339125 Ry
     Harris-Foulkes estimate   =    -741.92755126 Ry
     estimated scf accuracy    <       0.02765247 Ry

     iteration #  5     ecut=    35.00 Ry     beta= 0.70
     Davidson diagonalization with overlap
     ethr =  2.66E-05,  avg # of iterations =  2.0

     negative rho (up, down):  8.858E-04 0.000E+00

     total cpu time spent up to now is       75.3 secs

     total energy              =    -741.92346308 Ry
     Harris-Foulkes estimate   =    -741.92445479 Ry
     estimated scf accuracy    <       0.01025599 Ry

     iteration #  6     ecut=    35.00 Ry     beta= 0.70
     Davidson diagonalization with overlap
     ethr =  9.86E-06,  avg # of iterations =  4.0

     negative rho (up, down):  8.849E-04 0.000E+00

     total cpu time spent up to now is       76.4 secs

     total energy              =    -741.92436483 Ry
     Harris-Foulkes estimate   =    -741.92435120 Ry
     estimated scf accuracy    <       0.00292128 Ry

     iteration #  7     ecut=    35.00 Ry     beta= 0.70
     Davidson diagonalization with overlap
     ethr =  2.81E-06,  avg # of iterations =  3.0

     negative rho (up, down):  8.848E-04 0.000E+00

     total cpu time spent up to now is       77.5 secs

     total energy              =    -741.92448664 Ry
     Harris-Foulkes estimate   =    -741.92448834 Ry
     estimated scf accuracy    <       0.00242555 Ry

     iteration #  8     ecut=    35.00 Ry     beta= 0.70
     Davidson diagonalization with overlap
     ethr =  2.33E-06,  avg # of iterations =  1.0

     negative rho (up, down):  8.854E-04 0.000E+00

     total cpu time spent up to now is       78.5 secs

     total energy              =    -741.92434141 Ry
     Harris-Foulkes estimate   =    -741.92451273 Ry
     estimated scf accuracy    <       0.00231547 Ry

     iteration #  9     ecut=    35.00 Ry     beta= 0.70
     Davidson diagonalization with overlap
     ethr =  2.23E-06,  avg # of iterations =  1.0

     negative rho (up, down):  8.849E-04 0.000E+00

     total cpu time spent up to now is       79.5 secs

     total energy              =    -741.92412315 Ry
     Harris-Foulkes estimate   =    -741.92437518 Ry
     estimated scf accuracy    <       0.00162610 Ry

     iteration # 10     ecut=    35.00 Ry     beta= 0.70
     Davidson diagonalization with overlap
     ethr =  1.56E-06,  avg # of iterations =  4.0

     negative rho (up, down):  8.841E-04 0.000E+00

     total cpu time spent up to now is       80.6 secs

     total energy              =    -741.92423309 Ry
     Harris-Foulkes estimate   =    -741.92428796 Ry
     estimated scf accuracy    <       0.00049337 Ry

     iteration # 11     ecut=    35.00 Ry     beta= 0.70
     Davidson diagonalization with overlap
     ethr =  4.74E-07,  avg # of iterations =  5.0

     negative rho (up, down):  8.832E-04 0.000E+00

     total cpu time spent up to now is       81.7 secs

     total energy              =    -741.92430159 Ry
     Harris-Foulkes estimate   =    -741.92430502 Ry
     estimated scf accuracy    <       0.00041144 Ry

     iteration # 12     ecut=    35.00 Ry     beta= 0.70
     Davidson diagonalization with overlap
     ethr =  3.96E-07,  avg # of iterations =  1.0

     negative rho (up, down):  8.826E-04 0.000E+00

     total cpu time spent up to now is       82.8 secs

     total energy              =    -741.92431753 Ry
     Harris-Foulkes estimate   =    -741.92430497 Ry
     estimated scf accuracy    <       0.00041714 Ry

     iteration # 13     ecut=    35.00 Ry     beta= 0.70
     Davidson diagonalization with overlap
     ethr =  3.96E-07,  avg # of iterations =  1.0

     negative rho (up, down):  8.752E-04 0.000E+00

     total cpu time spent up to now is       83.8 secs

     total energy              =    -741.92413599 Ry
     Harris-Foulkes estimate   =    -741.92431933 Ry
     estimated scf accuracy    <       0.00047271 Ry

     iteration # 14     ecut=    35.00 Ry     beta= 0.70
     Davidson diagonalization with overlap
     ethr =  3.96E-07,  avg # of iterations =  4.0

     negative rho (up, down):  8.786E-04 0.000E+00

     total cpu time spent up to now is       85.0 secs

     total energy              =    -741.92423215 Ry
     Harris-Foulkes estimate   =    -741.92434024 Ry
     estimated scf accuracy    <       0.00067385 Ry

     iteration # 15     ecut=    35.00 Ry     beta= 0.70
     Davidson diagonalization with overlap
     ethr =  3.96E-07,  avg # of iterations =  4.0

     negative rho (up, down):  8.801E-04 0.000E+00

     total cpu time spent up to now is       86.1 secs

     total energy              =    -741.92423735 Ry
     Harris-Foulkes estimate   =    -741.92427240 Ry
     estimated scf accuracy    <       0.00016729 Ry

     iteration # 16     ecut=    35.00 Ry     beta= 0.70
     Davidson diagonalization with overlap
     ethr =  1.61E-07,  avg # of iterations =  3.0

     negative rho (up, down):  8.807E-04 0.000E+00

     total cpu time spent up to now is       87.1 secs

     End of self-consistent calculation

          k = 0.0000 0.0000 0.0000 (  8304 PWs)   bands (ev):

   -62.1296 -62.0951 -62.0915 -62.0863 -36.5197 -36.5176 -36.5159 -36.2368
   -36.2344 -36.2326 -36.1485 -36.1484 -36.0858 -36.0144 -36.0104 -36.0061
   -15.2036 -13.9722 -13.3206 -13.3199 -13.3198 -13.1718 -13.1713 -13.1709
    -6.9390  -6.9384  -6.9378  -6.7540  -5.9647  -5.9646  -5.9643  -5.2129
    -5.2124  -5.2113  -4.2351  -4.2344  -4.2335  -3.7629  -3.7628  -3.0817
    -3.0811  -3.0809  -2.9712  -2.5630  -2.5626  -2.0926  -2.0925  -2.0922
    -1.8748  -1.8746  -1.8742  -1.2476

     highest occupied level (ev):    -1.2476

!    total energy              =    -741.92423363 Ry
     Harris-Foulkes estimate   =    -741.92425815 Ry
     estimated scf accuracy    <       0.00002672 Ry

     The total energy is the sum of the following terms:

     one-electron contribution =   -4462.23701273 Ry
     hartree contribution      =    2230.26355688 Ry
     xc contribution           =    -130.15835943 Ry
     ewald contribution        =    1620.20758164 Ry

     convergence has been achieved in  16 iterations

     negative rho (up, down):  8.807E-04 0.000E+00

     Forces acting on atoms (cartesian axes, Ry/au):

     atom    1 type  1   force =    -0.00000000    0.00012641    0.00000000
     atom    2 type  2   force =     0.00002902    0.00001675    0.00054826
     atom    3 type  2   force =     0.00002902    0.00001675   -0.00054826
     atom    4 type  1   force =     0.00010947   -0.00006321    0.00000000
     atom    5 type  2   force =    -0.00000000   -0.00000000    0.00051094
     atom    6 type  2   force =     0.00000000    0.00000000   -0.00051094
     atom    7 type  1   force =     0.00000000   -0.00000000    0.00000000
     atom    8 type  2   force =    -0.00002902    0.00001675    0.00054826
     atom    9 type  2   force =    -0.00002902    0.00001675   -0.00054826
     atom   10 type  1   force =    -0.00010947   -0.00006321   -0.00000000
     atom   11 type  2   force =    -0.00000000   -0.00003351    0.00054826
     atom   12 type  2   force =     0.00000000   -0.00003351   -0.00054826

     Total force =     0.001543     Total SCF correction =     0.014038
     SCF correction compared to forces is large: reduce conv_thr to get better values


     Computing stress (Cartesian axis) and pressure


     negative rho (up, down):  8.807E-04 0.000E+00
          total   stress  (Ry/bohr**3)                   (kbar)     P=       -1.34
  -0.00001506   0.00000000  -0.00000000           -2.22        0.00       -0.00
   0.00000000  -0.00001506  -0.00000000            0.00       -2.22       -0.00
  -0.00000000  -0.00000000   0.00000277           -0.00       -0.00        0.41


     number of scf cycles    =   4
     number of bfgs steps    =   3

     enthalpy old            =    -741.9239397486 Ry
     enthalpy new            =    -741.9242336345 Ry

     CASE: enthalpy_new < enthalpy_old

     new trust radius        =       0.0119909619 bohr
     new conv_thr            =       0.0000500000 Ry

     new unit-cell volume =   4721.32912 a.u.^3 (   699.62878 Ang^3 )
     density =      1.51968 g/cm^3

CELL_PARAMETERS (angstrom)
   6.350812334   0.000000000   0.000000000
  -3.175406167   5.499964816  -0.000000000
  -0.000000000  -0.000000000  20.029886009

ATOMIC_POSITIONS (angstrom)
Mo           -0.0000158770        1.8332843791       10.0149430046
S             1.5874688411        0.9165072295        8.4208961296
S             1.5874688411        0.9165072295       11.6089898795
Mo           -1.5877591379        4.5833363764       10.0149430046
S             0.0000158770        3.6666340440        8.4209775824
S             0.0000158770        3.6666340440       11.6089084267
Mo            3.1753902900        1.8333307720       10.0149430046
S             4.7633752471        0.9165072295        8.4208961296
S             4.7633752471        0.9165072295       11.6089898795
Mo            1.5877273839        4.5833363764       10.0149430046
S             3.1754220441        3.6669228571        8.4208961296
S             3.1754220441        3.6669228571       11.6089898795



     Writing output data file ./pwscf.save/
     NEW-OLD atomic charge density approx. for the potential

     negative rho (up, down):  8.681E-04 0.000E+00
     extrapolated charge  103.82254, renormalised to  104.00000

     total cpu time spent up to now is       99.0 secs

     Self-consistent Calculation

     iteration #  1     ecut=    35.00 Ry     beta= 0.70
     Davidson diagonalization with overlap
     ethr =  1.00E-06,  avg # of iterations =  9.0

     negative rho (up, down):  9.064E-04 0.000E+00

     total cpu time spent up to now is      100.5 secs

     total energy              =    -741.87150014 Ry
     Harris-Foulkes estimate   =    -749.32632856 Ry
     estimated scf accuracy    <       0.04902944 Ry

     iteration #  2     ecut=    35.00 Ry     beta= 0.70
     Davidson diagonalization with overlap
     ethr =  4.71E-05,  avg # of iterations =  5.0

     negative rho (up, down):  8.908E-04 0.000E+00

     total cpu time spent up to now is      101.9 secs

     total energy              =    -741.84723657 Ry
     Harris-Foulkes estimate   =    -742.07667061 Ry
     estimated scf accuracy    <       1.04898896 Ry

     iteration #  3     ecut=    35.00 Ry     beta= 0.70
     Davidson diagonalization with overlap
     ethr =  4.71E-05,  avg # of iterations =  5.0

     negative rho (up, down):  8.793E-04 0.000E+00

     total cpu time spent up to now is      103.1 secs

     total energy              =    -741.92552662 Ry
     Harris-Foulkes estimate   =    -741.92996746 Ry
     estimated scf accuracy    <       0.04134874 Ry

     iteration #  4     ecut=    35.00 Ry     beta= 0.70
     Davidson diagonalization with overlap
     ethr =  3.98E-05,  avg # of iterations =  1.0

     negative rho (up, down):  8.759E-04 0.000E+00

     total cpu time spent up to now is      104.2 secs

     total energy              =    -741.92406208 Ry
     Harris-Foulkes estimate   =    -741.92626997 Ry
     estimated scf accuracy    <       0.02584919 Ry

     iteration #  5     ecut=    35.00 Ry     beta= 0.70
     Davidson diagonalization with overlap
     ethr =  2.49E-05,  avg # of iterations =  1.0

     negative rho (up, down):  8.747E-04 0.000E+00

     total cpu time spent up to now is      105.2 secs

     total energy              =    -741.92373964 Ry
     Harris-Foulkes estimate   =    -741.92463018 Ry
     estimated scf accuracy    <       0.01521368 Ry

     iteration #  6     ecut=    35.00 Ry     beta= 0.70
     Davidson diagonalization with overlap
     ethr =  1.46E-05,  avg # of iterations =  1.0

     negative rho (up, down):  8.721E-04 0.000E+00

     total cpu time spent up to now is      106.2 secs

     total energy              =    -741.92230925 Ry
     Harris-Foulkes estimate   =    -741.92410184 Ry
     estimated scf accuracy    <       0.01081578 Ry

     iteration #  7     ecut=    35.00 Ry     beta= 0.70
     Davidson diagonalization with overlap
     ethr =  1.04E-05,  avg # of iterations =  4.0

     negative rho (up, down):  8.723E-04 0.000E+00

     total cpu time spent up to now is      107.3 secs

     total energy              =    -741.92433573 Ry
     Harris-Foulkes estimate   =    -741.92439048 Ry
     estimated scf accuracy    <       0.00031522 Ry

     iteration #  8     ecut=    35.00 Ry     beta= 0.70
     Davidson diagonalization with overlap
     ethr =  3.03E-07,  avg # of iterations =  5.0

     negative rho (up, down):  8.736E-04 0.000E+00

     total cpu time spent up to now is      108.5 secs

     total energy              =    -741.92442235 Ry
     Harris-Foulkes estimate   =    -741.92442714 Ry
     estimated scf accuracy    <       0.00019603 Ry

     iteration #  9     ecut=    35.00 Ry     beta= 0.70
     Davidson diagonalization with overlap
     ethr =  1.88E-07,  avg # of iterations =  5.0

     negative rho (up, down):  8.746E-04 0.000E+00

     total cpu time spent up to now is      109.7 secs

     total energy              =    -741.92463731 Ry
     Harris-Foulkes estimate   =    -741.92452272 Ry
     estimated scf accuracy    <       0.00082366 Ry

     iteration # 10     ecut=    35.00 Ry     beta= 0.70
     Davidson diagonalization with overlap
     ethr =  1.88E-07,  avg # of iterations =  3.0

     negative rho (up, down):  8.705E-04 0.000E+00

     total cpu time spent up to now is      110.9 secs

     total energy              =    -741.92377641 Ry
     Harris-Foulkes estimate   =    -741.92467121 Ry
     estimated scf accuracy    <       0.00187045 Ry

     iteration # 11     ecut=    35.00 Ry     beta= 0.70
     Davidson diagonalization with overlap
     ethr =  1.88E-07,  avg # of iterations =  6.0

     negative rho (up, down):  8.702E-04 0.000E+00

     total cpu time spent up to now is      112.3 secs

     total energy              =    -741.92427802 Ry
     Harris-Foulkes estimate   =    -741.92465768 Ry
     estimated scf accuracy    <       0.00197586 Ry

     iteration # 12     ecut=    35.00 Ry     beta= 0.70
     Davidson diagonalization with overlap
     ethr =  1.88E-07,  avg # of iterations =  5.0

     negative rho (up, down):  8.681E-04 0.000E+00

     total cpu time spent up to now is      113.5 secs

     total energy              =    -741.92445253 Ry
     Harris-Foulkes estimate   =    -741.92439671 Ry
     estimated scf accuracy    <       0.00018816 Ry

     iteration # 13     ecut=    35.00 Ry     beta= 0.70
     Davidson diagonalization with overlap
     ethr =  1.81E-07,  avg # of iterations =  3.0

     negative rho (up, down):  8.687E-04 0.000E+00

     total cpu time spent up to now is      114.6 secs

     total energy              =    -741.92436449 Ry
     Harris-Foulkes estimate   =    -741.92447610 Ry
     estimated scf accuracy    <       0.00067055 Ry

     iteration # 14     ecut=    35.00 Ry     beta= 0.70
     Davidson diagonalization with overlap
     ethr =  1.81E-07,  avg # of iterations =  4.0

     negative rho (up, down):  8.681E-04 0.000E+00

     total cpu time spent up to now is      115.8 secs

     total energy              =    -741.92442503 Ry
     Harris-Foulkes estimate   =    -741.92438800 Ry
     estimated scf accuracy    <       0.00018180 Ry

     iteration # 15     ecut=    35.00 Ry     beta= 0.70
     Davidson diagonalization with overlap
     ethr =  1.75E-07,  avg # of iterations =  2.0

     negative rho (up, down):  8.695E-04 0.000E+00

     total cpu time spent up to now is      116.8 secs

     total energy              =    -741.92432638 Ry
     Harris-Foulkes estimate   =    -741.92443122 Ry
     estimated scf accuracy    <       0.00035072 Ry

     iteration # 16     ecut=    35.00 Ry     beta= 0.70
     Davidson diagonalization with overlap
     ethr =  1.75E-07,  avg # of iterations =  4.0

     negative rho (up, down):  8.698E-04 0.000E+00

     total cpu time spent up to now is      117.9 secs

     End of self-consistent calculation

          k = 0.0000 0.0000 0.0000 (  8304 PWs)   bands (ev):

   -62.1083 -62.0722 -62.0689 -62.0679 -36.4998 -36.4994 -36.4983 -36.2146
   -36.2138 -36.2120 -36.1267 -36.1267 -36.0674 -35.9937 -35.9906 -35.9897
   -15.2008 -13.9712 -13.3093 -13.3084 -13.3081 -13.1651 -13.1644 -13.1639
    -6.9363  -6.9357  -6.9351  -6.7498  -5.9640  -5.9638  -5.9634  -5.2056
    -5.2051  -5.2041  -4.2205  -4.2199  -4.2193  -3.7441  -3.7441  -3.0791
    -3.0786  -3.0784  -2.9713  -2.5432  -2.5429  -2.0746  -2.0744  -2.0743
    -1.8646  -1.8644  -1.8642  -1.2448

     highest occupied level (ev):    -1.2448

!    total energy              =    -741.92436826 Ry
     Harris-Foulkes estimate   =    -741.92437152 Ry
     estimated scf accuracy    <       0.00000364 Ry

     The total energy is the sum of the following terms:

     one-electron contribution =   -4468.37219988 Ry
     hartree contribution      =    2233.29550243 Ry
     xc contribution           =    -130.16477334 Ry
     ewald contribution        =    1623.31710253 Ry

     convergence has been achieved in  16 iterations

     negative rho (up, down):  8.698E-04 0.000E+00

     Forces acting on atoms (cartesian axes, Ry/au):

     atom    1 type  1   force =     0.00000000   -0.00001104   -0.00000000
     atom    2 type  2   force =     0.00005315    0.00003068    0.00042726
     atom    3 type  2   force =     0.00005315    0.00003068   -0.00042726
     atom    4 type  1   force =    -0.00000956    0.00000552    0.00000000
     atom    5 type  2   force =    -0.00000000   -0.00000000    0.00037711
     atom    6 type  2   force =     0.00000000   -0.00000000   -0.00037711
     atom    7 type  1   force =     0.00000000   -0.00000000    0.00000000
     atom    8 type  2   force =    -0.00005315    0.00003068    0.00042726
     atom    9 type  2   force =    -0.00005315    0.00003068   -0.00042726
     atom   10 type  1   force =     0.00000956    0.00000552    0.00000000
     atom   11 type  2   force =    -0.00000000   -0.00006137    0.00042726
     atom   12 type  2   force =     0.00000000   -0.00006137   -0.00042726

     Total force =     0.001184     Total SCF correction =     0.003767
     SCF correction compared to forces is large: reduce conv_thr to get better values


     Computing stress (Cartesian axis) and pressure


     negative rho (up, down):  8.698E-04 0.000E+00
          total   stress  (Ry/bohr**3)                   (kbar)     P=       -1.42
  -0.00001285  -0.00000000  -0.00000000           -1.89       -0.00       -0.00
   0.00000000  -0.00001285   0.00000000            0.00       -1.89        0.00
  -0.00000000  -0.00000000  -0.00000333           -0.00       -0.00       -0.49


     number of scf cycles    =   5
     number of bfgs steps    =   4

     enthalpy old            =    -741.9242336345 Ry
     enthalpy new            =    -741.9243682650 Ry

     CASE: enthalpy_new < enthalpy_old

     new trust radius        =       0.0179867970 bohr
     new conv_thr            =       0.0000500000 Ry

     new unit-cell volume =   4708.74761 a.u.^3 (   697.76440 Ang^3 )
     density =      1.52374 g/cm^3

CELL_PARAMETERS (angstrom)
   6.342500038   0.000000000   0.000000000
  -3.171250019   5.492766157  -0.000000000
  -0.000000000  -0.000000000  20.028905480

ATOMIC_POSITIONS (angstrom)
Mo           -0.0000158563        1.8308801028       10.0144527401
S             1.5854729283        0.9153549127        8.4191080197
S             1.5854729283        0.9153549127       11.6097974605
Mo           -1.5856851233        4.5773398373       10.0144527401
S             0.0000158563        3.6618349498        8.4190714320
S             0.0000158563        3.6618349498       11.6098340482
Mo            3.1712341629        1.8309312069       10.0144527401
S             4.7570588226        0.9153549127        8.4191080197
S             4.7570588226        0.9153549127       11.6097974605
Mo            1.5856534108        4.5773398373       10.0144527401
S             3.1712658754        3.6620288674        8.4191080197
S             3.1712658754        3.6620288674       11.6097974605



     Writing output data file ./pwscf.save/
     NEW-OLD atomic charge density approx. for the potential

     negative rho (up, down):  8.486E-04 0.000E+00
     extrapolated charge  103.72213, renormalised to  104.00000

     total cpu time spent up to now is      129.8 secs

     Self-consistent Calculation

     iteration #  1     ecut=    35.00 Ry     beta= 0.70
     Davidson diagonalization with overlap
     ethr =  1.00E-06,  avg # of iterations = 10.0

     negative rho (up, down):  8.997E-04 0.000E+00

     total cpu time spent up to now is      131.4 secs

     total energy              =    -741.76921475 Ry
     Harris-Foulkes estimate   =    -753.54519077 Ry
     estimated scf accuracy    <       0.14966165 Ry

     iteration #  2     ecut=    35.00 Ry     beta= 0.70
     Davidson diagonalization with overlap
     ethr =  1.44E-04,  avg # of iterations =  5.0

     negative rho (up, down):  8.659E-04 0.000E+00

     total cpu time spent up to now is      132.7 secs

     total energy              =    -741.69300115 Ry
     Harris-Foulkes estimate   =    -742.36782827 Ry
     estimated scf accuracy    <       3.00649094 Ry

     iteration #  3     ecut=    35.00 Ry     beta= 0.70
     Davidson diagonalization with overlap
     ethr =  1.44E-04,  avg # of iterations =  5.0

     negative rho (up, down):  8.513E-04 0.000E+00

     total cpu time spent up to now is      134.0 secs

     total energy              =    -741.92548749 Ry
     Harris-Foulkes estimate   =    -741.93853659 Ry
     estimated scf accuracy    <       0.10641093 Ry

     iteration #  4     ecut=    35.00 Ry     beta= 0.70
     Davidson diagonalization with overlap
     ethr =  1.02E-04,  avg # of iterations =  1.0

     negative rho (up, down):  8.512E-04 0.000E+00

     total cpu time spent up to now is      135.0 secs

     total energy              =    -741.92857864 Ry
     Harris-Foulkes estimate   =    -741.92747139 Ry
     estimated scf accuracy    <       0.06284684 Ry

     iteration #  5     ecut=    35.00 Ry     beta= 0.70
     Davidson diagonalization with overlap
     ethr =  6.04E-05,  avg # of iterations =  1.0

     negative rho (up, down):  8.589E-04 0.000E+00

     total cpu time spent up to now is      136.0 secs

     total energy              =    -741.92822015 Ry
     Harris-Foulkes estimate   =    -741.92910274 Ry
     estimated scf accuracy    <       0.06075154 Ry

     iteration #  6     ecut=    35.00 Ry     beta= 0.70
     Davidson diagonalization with overlap
     ethr =  5.84E-05,  avg # of iterations =  1.0

     negative rho (up, down):  8.710E-04 0.000E+00

     total cpu time spent up to now is      137.0 secs

     total energy              =    -741.92616317 Ry
     Harris-Foulkes estimate   =    -741.92860893 Ry
     estimated scf accuracy    <       0.05021648 Ry

     iteration #  7     ecut=    35.00 Ry     beta= 0.70
     Davidson diagonalization with overlap
     ethr =  4.83E-05,  avg # of iterations =  1.0

     negative rho (up, down):  8.824E-04 0.000E+00

     total cpu time spent up to now is      138.1 secs

     total energy              =    -741.92652790 Ry
     Harris-Foulkes estimate   =    -741.92659489 Ry
     estimated scf accuracy    <       0.03918818 Ry

     iteration #  8     ecut=    35.00 Ry     beta= 0.70
     Davidson diagonalization with overlap
     ethr =  3.77E-05,  avg # of iterations =  1.0

     negative rho (up, down):  9.105E-04 0.000E+00

     total cpu time spent up to now is      139.1 secs

     total energy              =    -741.92737813 Ry
     Harris-Foulkes estimate   =    -741.92678508 Ry
     estimated scf accuracy    <       0.03539898 Ry

     iteration #  9     ecut=    35.00 Ry     beta= 0.70
     Davidson diagonalization with overlap
     ethr =  3.40E-05,  avg # of iterations =  1.0

     negative rho (up, down):  9.090E-04 0.000E+00

     total cpu time spent up to now is      140.1 secs

     total energy              =    -741.92739974 Ry
     Harris-Foulkes estimate   =    -741.92752476 Ry
     estimated scf accuracy    <       0.03374629 Ry

     iteration # 10     ecut=    35.00 Ry     beta= 0.70
     Davidson diagonalization with overlap
     ethr =  3.24E-05,  avg # of iterations =  1.0

     negative rho (up, down):  9.865E-04 0.000E+00

     total cpu time spent up to now is      141.2 secs

     total energy              =    -741.93026279 Ry
     Harris-Foulkes estimate   =    -741.92748082 Ry
     estimated scf accuracy    <       0.03173350 Ry

     iteration # 11     ecut=    35.00 Ry     beta= 0.70
     Davidson diagonalization with overlap
     ethr =  3.05E-05,  avg # of iterations =  1.0

     negative rho (up, down):  1.037E-03 0.000E+00

     total cpu time spent up to now is      142.2 secs

     total energy              =    -741.93424849 Ry
     Harris-Foulkes estimate   =    -741.93042405 Ry
     estimated scf accuracy    <       0.03888946 Ry

     iteration # 12     ecut=    35.00 Ry     beta= 0.70
     Davidson diagonalization with overlap
     ethr =  3.05E-05,  avg # of iterations =  1.0

     negative rho (up, down):  9.984E-04 0.000E+00

     total cpu time spent up to now is      143.3 secs

     total energy              =    -741.93236521 Ry
     Harris-Foulkes estimate   =    -741.93470110 Ry
     estimated scf accuracy    <       0.05928740 Ry

     iteration # 13     ecut=    35.00 Ry     beta= 0.70
     Davidson diagonalization with overlap
     ethr =  3.05E-05,  avg # of iterations =  1.0

     negative rho (up, down):  8.555E-04 0.000E+00

     total cpu time spent up to now is      144.3 secs

     total energy              =    -741.91338253 Ry
     Harris-Foulkes estimate   =    -741.93250605 Ry
     estimated scf accuracy    <       0.05491104 Ry

     iteration # 14     ecut=    35.00 Ry     beta= 0.70
     Davidson diagonalization with overlap
     ethr =  3.05E-05,  avg # of iterations =  5.0

     negative rho (up, down):  8.568E-04 0.000E+00

     total cpu time spent up to now is      145.5 secs

     total energy              =    -741.92470035 Ry
     Harris-Foulkes estimate   =    -741.92536659 Ry
     estimated scf accuracy    <       0.00693182 Ry

     iteration # 15     ecut=    35.00 Ry     beta= 0.70
     Davidson diagonalization with overlap
     ethr =  6.67E-06,  avg # of iterations =  1.0

     negative rho (up, down):  8.582E-04 0.000E+00

     total cpu time spent up to now is      146.6 secs

     total energy              =    -741.92420134 Ry
     Harris-Foulkes estimate   =    -741.92485461 Ry
     estimated scf accuracy    <       0.00504577 Ry

     iteration # 16     ecut=    35.00 Ry     beta= 0.70
     Davidson diagonalization with overlap
     ethr =  4.85E-06,  avg # of iterations =  3.0

     negative rho (up, down):  8.568E-04 0.000E+00

     total cpu time spent up to now is      147.6 secs

     total energy              =    -741.92425319 Ry
     Harris-Foulkes estimate   =    -741.92440778 Ry
     estimated scf accuracy    <       0.00189510 Ry

     iteration # 17     ecut=    35.00 Ry     beta= 0.70
     Davidson diagonalization with overlap
     ethr =  1.82E-06,  avg # of iterations =  4.0

     negative rho (up, down):  8.555E-04 0.000E+00

     total cpu time spent up to now is      148.7 secs

     total energy              =    -741.92433390 Ry
     Harris-Foulkes estimate   =    -741.92445609 Ry
     estimated scf accuracy    <       0.00043172 Ry

     iteration # 18     ecut=    35.00 Ry     beta= 0.70
     Davidson diagonalization with overlap
     ethr =  4.15E-07,  avg # of iterations =  4.0

     negative rho (up, down):  8.523E-04 0.000E+00

     total cpu time spent up to now is      150.0 secs

     total energy              =    -741.92441676 Ry
     Harris-Foulkes estimate   =    -741.92449519 Ry
     estimated scf accuracy    <       0.00016968 Ry

     iteration # 19     ecut=    35.00 Ry     beta= 0.70
     Davidson diagonalization with overlap
     ethr =  1.63E-07,  avg # of iterations =  5.0

     negative rho (up, down):  8.514E-04 0.000E+00

     total cpu time spent up to now is      151.2 secs

     total energy              =    -741.92446852 Ry
     Harris-Foulkes estimate   =    -741.92449528 Ry
     estimated scf accuracy    <       0.00016711 Ry

     iteration # 20     ecut=    35.00 Ry     beta= 0.70
     Davidson diagonalization with overlap
     ethr =  1.61E-07,  avg # of iterations =  2.0

     negative rho (up, down):  8.518E-04 0.000E+00

     total cpu time spent up to now is      152.2 secs

     total energy              =    -741.92445479 Ry
     Harris-Foulkes estimate   =    -741.92447662 Ry
     estimated scf accuracy    <       0.00006263 Ry

     iteration # 21     ecut=    35.00 Ry     beta= 0.70
     Davidson diagonalization with overlap
     ethr =  6.02E-08,  avg # of iterations =  5.0

     negative rho (up, down):  8.509E-04 0.000E+00

     total cpu time spent up to now is      153.4 secs

     End of self-consistent calculation

          k = 0.0000 0.0000 0.0000 (  8304 PWs)   bands (ev):

   -62.0806 -62.0428 -62.0415 -62.0398 -36.4751 -36.4744 -36.4738 -36.1856
   -36.1847 -36.1843 -36.0970 -36.0970 -36.0438 -35.9680 -35.9668 -35.9652
   -15.1949 -13.9673 -13.2899 -13.2895 -13.2893 -13.1522 -13.1520 -13.1517
    -6.9308  -6.9302  -6.9300  -6.7428  -5.9611  -5.9609  -5.9607  -5.1939
    -5.1937  -5.1928  -4.1987  -4.1983  -4.1978  -3.7166  -3.7165  -3.0733
    -3.0731  -3.0729  -2.9690  -2.5139  -2.5135  -2.0461  -2.0459  -2.0458
    -1.8489  -1.8487  -1.8484  -1.2405

     highest occupied level (ev):    -1.2405

!    total energy              =    -741.92445370 Ry
     Harris-Foulkes estimate   =    -741.92447533 Ry
     estimated scf accuracy    <       0.00002328 Ry

     The total energy is the sum of the following terms:

     one-electron contribution =   -4477.22004167 Ry
     hartree contribution      =    2237.70551306 Ry
     xc contribution           =    -130.17865619 Ry
     ewald contribution        =    1627.76873109 Ry

     convergence has been achieved in  21 iterations

     negative rho (up, down):  8.509E-04 0.000E+00

     Forces acting on atoms (cartesian axes, Ry/au):

     atom    1 type  1   force =     0.00000000   -0.00002804   -0.00000000
     atom    2 type  2   force =    -0.00003943   -0.00002277    0.00013464
     atom    3 type  2   force =    -0.00003943   -0.00002277   -0.00013464
     atom    4 type  1   force =    -0.00002429    0.00001402   -0.00000000
     atom    5 type  2   force =     0.00000000   -0.00000000    0.00015541
     atom    6 type  2   force =     0.00000000   -0.00000000   -0.00015541
     atom    7 type  1   force =    -0.00000000    0.00000000    0.00000000
     atom    8 type  2   force =     0.00003943   -0.00002277    0.00013464
     atom    9 type  2   force =     0.00003943   -0.00002277   -0.00013464
     atom   10 type  1   force =     0.00002429    0.00001402    0.00000000
     atom   11 type  2   force =    -0.00000000    0.00004553    0.00013464
     atom   12 type  2   force =     0.00000000    0.00004553   -0.00013464

     Total force =     0.000415     Total SCF correction =     0.013792
     SCF correction compared to forces is large: reduce conv_thr to get better values


     Computing stress (Cartesian axis) and pressure


     negative rho (up, down):  8.509E-04 0.000E+00
          total   stress  (Ry/bohr**3)                   (kbar)     P=       -1.11
  -0.00000679   0.00000000   0.00000000           -1.00        0.00        0.00
   0.00000000  -0.00000679  -0.00000000            0.00       -1.00       -0.00
   0.00000000  -0.00000000  -0.00000900            0.00       -0.00       -1.32


     number of scf cycles    =   6
     number of bfgs steps    =   5

     enthalpy old            =    -741.9243682650 Ry
     enthalpy new            =    -741.9244536992 Ry

     CASE: enthalpy_new < enthalpy_old

     new trust radius        =       0.0231163003 bohr
     new conv_thr            =       0.0000500000 Ry

     new unit-cell volume =   4691.80436 a.u.^3 (   695.25367 Ang^3 )
     density =      1.52924 g/cm^3

CELL_PARAMETERS (angstrom)
   6.331816967   0.000000000   0.000000000
  -3.165908484   5.483514346  -0.000000000
  -0.000000000  -0.000000000  20.024235847

ATOMIC_POSITIONS (angstrom)
Mo           -0.0000158295        1.8277839539       10.0121179234
S             1.5828367187        0.9138329272        8.4154275594
S             1.5828367187        0.9138329272       11.6088082874
Mo           -1.5830248914        4.5696360779       10.0121179234
S             0.0000158295        3.6556670914        8.4152965495
S             0.0000158295        3.6556670914       11.6089392973
Mo            3.1658926542        1.8278472545       10.0121179234
S             4.7490119079        0.9138329272        8.4154275594
S             4.7490119079        0.9138329272       11.6088082874
Mo            1.5829932323        4.5696360779       10.0121179234
S             3.1659243133        3.6558210739        8.4154275594
S             3.1659243133        3.6558210739       11.6088082874



     Writing output data file ./pwscf.save/
     NEW-OLD atomic charge density approx. for the potential

     negative rho (up, down):  8.202E-04 0.000E+00
     extrapolated charge  103.62445, renormalised to  104.00000

     total cpu time spent up to now is      165.3 secs

     Self-consistent Calculation

     iteration #  1     ecut=    35.00 Ry     beta= 0.70
     Davidson diagonalization with overlap
     ethr =  1.00E-06,  avg # of iterations = 10.0

     negative rho (up, down):  8.802E-04 0.000E+00

     total cpu time spent up to now is      167.1 secs

     total energy              =    -741.61402407 Ry
     Harris-Foulkes estimate   =    -757.67895229 Ry
     estimated scf accuracy    <       0.30436482 Ry

     iteration #  2     ecut=    35.00 Ry     beta= 0.70
     Davidson diagonalization with overlap
     ethr =  2.93E-04,  avg # of iterations =  5.0

     negative rho (up, down):  7.761E-04 0.000E+00

     total cpu time spent up to now is      168.4 secs

     total energy              =    -741.46476544 Ry
     Harris-Foulkes estimate   =    -742.80508774 Ry
     estimated scf accuracy    <       5.87607261 Ry

     iteration #  3     ecut=    35.00 Ry     beta= 0.70
     Davidson diagonalization with overlap
     ethr =  2.93E-04,  avg # of iterations =  5.0

     negative rho (up, down):  8.026E-04 0.000E+00

     total cpu time spent up to now is      169.7 secs

     total energy              =    -741.92833297 Ry
     Harris-Foulkes estimate   =    -741.95127054 Ry
     estimated scf accuracy    <       0.20217905 Ry

     iteration #  4     ecut=    35.00 Ry     beta= 0.70
     Davidson diagonalization with overlap
     ethr =  1.94E-04,  avg # of iterations =  1.0

     negative rho (up, down):  8.109E-04 0.000E+00

     total cpu time spent up to now is      170.8 secs

     total energy              =    -741.92485692 Ry
     Harris-Foulkes estimate   =    -741.93170652 Ry
     estimated scf accuracy    <       0.12224322 Ry

     iteration #  5     ecut=    35.00 Ry     beta= 0.70
     Davidson diagonalization with overlap
     ethr =  1.18E-04,  avg # of iterations =  1.0

     negative rho (up, down):  8.459E-04 0.000E+00

     total cpu time spent up to now is      171.8 secs

     total energy              =    -741.91144021 Ry
     Harris-Foulkes estimate   =    -741.92683431 Ry
     estimated scf accuracy    <       0.08751419 Ry

     iteration #  6     ecut=    35.00 Ry     beta= 0.70
     Davidson diagonalization with overlap
     ethr =  8.41E-05,  avg # of iterations =  4.0

     negative rho (up, down):  8.208E-04 0.000E+00

     total cpu time spent up to now is      173.1 secs

     total energy              =    -741.92405189 Ry
     Harris-Foulkes estimate   =    -741.92361863 Ry
     estimated scf accuracy    <       0.00096607 Ry

     iteration #  7     ecut=    35.00 Ry     beta= 0.70
     Davidson diagonalization with overlap
     ethr =  9.29E-07,  avg # of iterations =  6.0

     negative rho (up, down):  8.172E-04 0.000E+00

     total cpu time spent up to now is      174.5 secs

     total energy              =    -741.92702116 Ry
     Harris-Foulkes estimate   =    -741.92620737 Ry
     estimated scf accuracy    <       0.01070513 Ry

     iteration #  8     ecut=    35.00 Ry     beta= 0.70
     Davidson diagonalization with overlap
     ethr =  9.29E-07,  avg # of iterations =  3.0

     negative rho (up, down):  8.178E-04 0.000E+00

     total cpu time spent up to now is      175.7 secs

     total energy              =    -741.92755204 Ry
     Harris-Foulkes estimate   =    -741.92713413 Ry
     estimated scf accuracy    <       0.01719498 Ry

     iteration #  9     ecut=    35.00 Ry     beta= 0.70
     Davidson diagonalization with overlap
     ethr =  9.29E-07,  avg # of iterations =  1.0

     negative rho (up, down):  8.218E-04 0.000E+00

     total cpu time spent up to now is      176.7 secs

     total energy              =    -741.92729242 Ry
     Harris-Foulkes estimate   =    -741.92757415 Ry
     estimated scf accuracy    <       0.01890207 Ry

     iteration # 10     ecut=    35.00 Ry     beta= 0.70
     Davidson diagonalization with overlap
     ethr =  9.29E-07,  avg # of iterations =  1.0

     negative rho (up, down):  8.383E-04 0.000E+00

     total cpu time spent up to now is      177.8 secs

     total energy              =    -741.92409068 Ry
     Harris-Foulkes estimate   =    -741.92731513 Ry
     estimated scf accuracy    <       0.01825683 Ry

     iteration # 11     ecut=    35.00 Ry     beta= 0.70
     Davidson diagonalization with overlap
     ethr =  9.29E-07,  avg # of iterations =  5.0

     negative rho (up, down):  8.325E-04 0.000E+00

     total cpu time spent up to now is      179.1 secs

     total energy              =    -741.92488888 Ry
     Harris-Foulkes estimate   =    -741.92498218 Ry
     estimated scf accuracy    <       0.00353918 Ry

     iteration # 12     ecut=    35.00 Ry     beta= 0.70
     Davidson diagonalization with overlap
     ethr =  9.29E-07,  avg # of iterations =  1.0

     negative rho (up, down):  8.279E-04 0.000E+00

     total cpu time spent up to now is      180.1 secs

     total energy              =    -741.92378372 Ry
     Harris-Foulkes estimate   =    -741.92489367 Ry
     estimated scf accuracy    <       0.00326842 Ry

     iteration # 13     ecut=    35.00 Ry     beta= 0.70
     Davidson diagonalization with overlap
     ethr =  9.29E-07,  avg # of iterations =  5.0

     negative rho (up, down):  8.267E-04 0.000E+00

     total cpu time spent up to now is      181.4 secs

     total energy              =    -741.92446270 Ry
     Harris-Foulkes estimate   =    -741.92452955 Ry
     estimated scf accuracy    <       0.00041672 Ry

     iteration # 14     ecut=    35.00 Ry     beta= 0.70
     Davidson diagonalization with overlap
     ethr =  4.01E-07,  avg # of iterations =  1.0

     negative rho (up, down):  8.258E-04 0.000E+00

     total cpu time spent up to now is      182.4 secs

     total energy              =    -741.92444946 Ry
     Harris-Foulkes estimate   =    -741.92447340 Ry
     estimated scf accuracy    <       0.00021407 Ry

     iteration # 15     ecut=    35.00 Ry     beta= 0.70
     Davidson diagonalization with overlap
     ethr =  2.06E-07,  avg # of iterations =  4.0

     negative rho (up, down):  8.250E-04 0.000E+00

     total cpu time spent up to now is      183.6 secs

     total energy              =    -741.92444916 Ry
     Harris-Foulkes estimate   =    -741.92446299 Ry
     estimated scf accuracy    <       0.00005919 Ry

     iteration # 16     ecut=    35.00 Ry     beta= 0.70
     Davidson diagonalization with overlap
     ethr =  5.69E-08,  avg # of iterations =  4.0

     negative rho (up, down):  8.239E-04 0.000E+00

     total cpu time spent up to now is      184.8 secs

     End of self-consistent calculation

          k = 0.0000 0.0000 0.0000 (  8304 PWs)   bands (ev):

   -62.0559 -62.0164 -62.0158 -62.0154 -36.4536 -36.4534 -36.4531 -36.1590
   -36.1589 -36.1586 -36.0695 -36.0695 -36.0228 -35.9448 -35.9444 -35.9439
   -15.1889 -13.9620 -13.2667 -13.2665 -13.2659 -13.1368 -13.1365 -13.1363
    -6.9266  -6.9260  -6.9259  -6.7370  -5.9588  -5.9585  -5.9583  -5.1826
    -5.1825  -5.1815  -4.1756  -4.1748  -4.1748  -3.6884  -3.6883  -3.0656
    -3.0655  -3.0654  -2.9647  -2.4813  -2.4810  -2.0109  -2.0109  -2.0108
    -1.8324  -1.8321  -1.8320  -1.2380

     highest occupied level (ev):    -1.2380

!    total energy              =    -741.92446207 Ry
     Harris-Foulkes estimate   =    -741.92446641 Ry
     estimated scf accuracy    <       0.00000467 Ry

     The total energy is the sum of the following terms:

     one-electron contribution =   -4488.16086985 Ry
     hartree contribution      =    2243.30932072 Ry
     xc contribution           =    -130.20493233 Ry
     ewald contribution        =    1633.13201939 Ry

     convergence has been achieved in  16 iterations

     negative rho (up, down):  8.239E-04 0.000E+00

     Forces acting on atoms (cartesian axes, Ry/au):

     atom    1 type  1   force =    -0.00000000    0.00005945    0.00000000
     atom    2 type  2   force =    -0.00001342   -0.00000775   -0.00005504
     atom    3 type  2   force =    -0.00001342   -0.00000775    0.00005504
     atom    4 type  1   force =     0.00005148   -0.00002972    0.00000000
     atom    5 type  2   force =    -0.00000000   -0.00000000    0.00003385
     atom    6 type  2   force =    -0.00000000   -0.00000000   -0.00003385
     atom    7 type  1   force =     0.00000000    0.00000000    0.00000000
     atom    8 type  2   force =     0.00001342   -0.00000775   -0.00005504
     atom    9 type  2   force =     0.00001342   -0.00000775    0.00005504
     atom   10 type  1   force =    -0.00005148   -0.00002972   -0.00000000
     atom   11 type  2   force =    -0.00000000    0.00001550   -0.00005504
     atom   12 type  2   force =    -0.00000000    0.00001550    0.00005504

     Total force =     0.000180     Total SCF correction =     0.007630
     SCF correction compared to forces is large: reduce conv_thr to get better values


     Computing stress (Cartesian axis) and pressure


     negative rho (up, down):  8.239E-04 0.000E+00
          total   stress  (Ry/bohr**3)                   (kbar)     P=        0.26
   0.00000466   0.00000000  -0.00000000            0.69        0.00       -0.00
   0.00000000   0.00000466  -0.00000000            0.00        0.69       -0.00
   0.00000000  -0.00000000  -0.00000398            0.00       -0.00       -0.59


     number of scf cycles    =   7
     number of bfgs steps    =   6

     enthalpy old            =    -741.9244536992 Ry
     enthalpy new            =    -741.9244620728 Ry

     CASE: enthalpy_new < enthalpy_old

     new trust radius        =       0.0089267582 bohr
     new conv_thr            =       0.0000500000 Ry

     new unit-cell volume =   4698.01893 a.u.^3 (   696.17457 Ang^3 )
     density =      1.52722 g/cm^3

CELL_PARAMETERS (angstrom)
   6.335942901   0.000000000   0.000000000
  -3.167971450   5.487087509  -0.000000000
  -0.000000000  -0.000000000  20.024653720

ATOMIC_POSITIONS (angstrom)
Mo           -0.0000158399        1.8289983316       10.0123268600
S             1.5838480015        0.9144167797        8.4163691132
S             1.5838480015        0.9144167797       11.6082846067
Mo           -1.5840361915        4.5726020608       10.0123268600
S             0.0000158399        3.6580491941        8.4163059218
S             0.0000158399        3.6580491941       11.6083477981
Mo            3.1679556105        1.8290383148       10.0123268600
S             4.7521265789        0.9144167797        8.4163691132
S             4.7521265789        0.9144167797       11.6082846067
Mo            1.5840045118        4.5726020608       10.0123268600
S             3.1679872902        3.6582265139        8.4163691132
S             3.1679872902        3.6582265139       11.6082846067



     Writing output data file ./pwscf.save/
     NEW-OLD atomic charge density approx. for the potential

     negative rho (up, down):  8.340E-04 0.000E+00
     extrapolated charge  104.13757, renormalised to  104.00000

     total cpu time spent up to now is      196.7 secs

     Self-consistent Calculation

     iteration #  1     ecut=    35.00 Ry     beta= 0.70
     Davidson diagonalization with overlap
     ethr =  1.00E-06,  avg # of iterations =  6.0

     negative rho (up, down):  7.879E-04 0.000E+00

     total cpu time spent up to now is      198.1 secs

     total energy              =    -741.88958330 Ry
     Harris-Foulkes estimate   =    -736.17142206 Ry
     estimated scf accuracy    <       0.03268013 Ry

     iteration #  2     ecut=    35.00 Ry     beta= 0.70
     Davidson diagonalization with overlap
     ethr =  3.14E-05,  avg # of iterations =  6.0

     negative rho (up, down):  7.928E-04 0.000E+00

     total cpu time spent up to now is      199.5 secs

     total energy              =    -741.86775902 Ry
     Harris-Foulkes estimate   =    -742.02742182 Ry
     estimated scf accuracy    <       0.75285594 Ry

     iteration #  3     ecut=    35.00 Ry     beta= 0.70
     Davidson diagonalization with overlap
     ethr =  3.14E-05,  avg # of iterations =  5.0

     negative rho (up, down):  8.060E-04 0.000E+00

     total cpu time spent up to now is      200.8 secs

     total energy              =    -741.92560667 Ry
     Harris-Foulkes estimate   =    -741.92813181 Ry
     estimated scf accuracy    <       0.02349397 Ry

     iteration #  4     ecut=    35.00 Ry     beta= 0.70
     Davidson diagonalization with overlap
     ethr =  2.26E-05,  avg # of iterations =  1.0

     negative rho (up, down):  8.120E-04 0.000E+00

     total cpu time spent up to now is      201.8 secs

     total energy              =    -741.92478927 Ry
     Harris-Foulkes estimate   =    -741.92596601 Ry
     estimated scf accuracy    <       0.01512022 Ry

     iteration #  5     ecut=    35.00 Ry     beta= 0.70
     Davidson diagonalization with overlap
     ethr =  1.45E-05,  avg # of iterations =  1.0

     negative rho (up, down):  8.171E-04 0.000E+00

     total cpu time spent up to now is      202.8 secs

     total energy              =    -741.92434351 Ry
     Harris-Foulkes estimate   =    -741.92503306 Ry
     estimated scf accuracy    <       0.00924322 Ry

     iteration #  6     ecut=    35.00 Ry     beta= 0.70
     Davidson diagonalization with overlap
     ethr =  8.89E-06,  avg # of iterations =  1.0

     negative rho (up, down):  8.190E-04 0.000E+00

     total cpu time spent up to now is      203.9 secs

     total energy              =    -741.92420715 Ry
     Harris-Foulkes estimate   =    -741.92451145 Ry
     estimated scf accuracy    <       0.00636133 Ry

     iteration #  7     ecut=    35.00 Ry     beta= 0.70
     Davidson diagonalization with overlap
     ethr =  6.12E-06,  avg # of iterations =  1.0

     negative rho (up, down):  8.201E-04 0.000E+00

     total cpu time spent up to now is      204.9 secs

     total energy              =    -741.92414971 Ry
     Harris-Foulkes estimate   =    -741.92433988 Ry
     estimated scf accuracy    <       0.00452120 Ry

     iteration #  8     ecut=    35.00 Ry     beta= 0.70
     Davidson diagonalization with overlap
     ethr =  4.35E-06,  avg # of iterations =  3.0

     negative rho (up, down):  8.205E-04 0.000E+00

     total cpu time spent up to now is      206.0 secs

     total energy              =    -741.92435354 Ry
     Harris-Foulkes estimate   =    -741.92437790 Ry
     estimated scf accuracy    <       0.00195114 Ry

     iteration #  9     ecut=    35.00 Ry     beta= 0.70
     Davidson diagonalization with overlap
     ethr =  1.88E-06,  avg # of iterations =  4.0

     negative rho (up, down):  8.209E-04 0.000E+00

     total cpu time spent up to now is      207.1 secs

     total energy              =    -741.92452985 Ry
     Harris-Foulkes estimate   =    -741.92453073 Ry
     estimated scf accuracy    <       0.00076414 Ry

     iteration # 10     ecut=    35.00 Ry     beta= 0.70
     Davidson diagonalization with overlap
     ethr =  7.35E-07,  avg # of iterations =  3.0

     negative rho (up, down):  8.305E-04 0.000E+00

     total cpu time spent up to now is      208.2 secs

     total energy              =    -741.92430944 Ry
     Harris-Foulkes estimate   =    -741.92457588 Ry
     estimated scf accuracy    <       0.00046630 Ry

     iteration # 11     ecut=    35.00 Ry     beta= 0.70
     Davidson diagonalization with overlap
     ethr =  4.48E-07,  avg # of iterations =  5.0

     negative rho (up, down):  8.313E-04 0.000E+00

     total cpu time spent up to now is      209.5 secs

     total energy              =    -741.92459947 Ry
     Harris-Foulkes estimate   =    -741.92467691 Ry
     estimated scf accuracy    <       0.00132654 Ry

     iteration # 12     ecut=    35.00 Ry     beta= 0.70
     Davidson diagonalization with overlap
     ethr =  4.48E-07,  avg # of iterations =  1.0

     negative rho (up, down):  8.316E-04 0.000E+00

     total cpu time spent up to now is      210.5 secs

     total energy              =    -741.92461857 Ry
     Harris-Foulkes estimate   =    -741.92460902 Ry
     estimated scf accuracy    <       0.00103158 Ry

[...]
     estimated scf accuracy    <       0.00109935 Ry

     iteration # 14     ecut=    35.00 Ry     beta= 0.70
     Davidson diagonalization with overlap
     ethr =  4.48E-07,  avg # of iterations =  1.0

     negative rho (up, down):  8.334E-04 0.000E+00

     total cpu time spent up to now is      212.6 secs

     total energy              =    -741.92463621 Ry
     Harris-Foulkes estimate   =    -741.92463589 Ry
     estimated scf accuracy    <       0.00108691 Ry

     iteration # 15     ecut=    35.00 Ry     beta= 0.70
     Davidson diagonalization with overlap
     ethr =  4.48E-07,  avg # of iterations =  1.0

     negative rho (up, down):  8.333E-04 0.000E+00

     total cpu time spent up to now is      213.6 secs

     total energy              =    -741.92465333 Ry
     Harris-Foulkes estimate   =    -741.92463739 Ry
     estimated scf accuracy    <       0.00108527 Ry

     iteration # 16     ecut=    35.00 Ry     beta= 0.70
     Davidson diagonalization with overlap
     ethr =  4.48E-07,  avg # of iterations =  1.0

     negative rho (up, down):  8.320E-04 0.000E+00

     total cpu time spent up to now is      214.6 secs

     total energy              =    -741.92455371 Ry
     Harris-Foulkes estimate   =    -741.92465399 Ry
     estimated scf accuracy    <       0.00113213 Ry

     iteration # 17     ecut=    35.00 Ry     beta= 0.70
     Davidson diagonalization with overlap
     ethr =  4.48E-07,  avg # of iterations =  3.0

     negative rho (up, down):  8.292E-04 0.000E+00

     total cpu time spent up to now is      215.8 secs

     total energy              =    -741.92444296 Ry
     Harris-Foulkes estimate   =    -741.92459300 Ry
     estimated scf accuracy    <       0.00085136 Ry

     iteration # 18     ecut=    35.00 Ry     beta= 0.70
     Davidson diagonalization with overlap
     ethr =  4.48E-07,  avg # of iterations =  5.0

     negative rho (up, down):  8.315E-04 0.000E+00

     total cpu time spent up to now is      217.1 secs

     total energy              =    -741.92435501 Ry
     Harris-Foulkes estimate   =    -741.92468540 Ry
     estimated scf accuracy    <       0.00176057 Ry

     iteration # 19     ecut=    35.00 Ry     beta= 0.70
     Davidson diagonalization with overlap
     ethr =  4.48E-07,  avg # of iterations =  4.0

     negative rho (up, down):  8.316E-04 0.000E+00

     total cpu time spent up to now is      218.2 secs

     total energy              =    -741.92447680 Ry
     Harris-Foulkes estimate   =    -741.92448515 Ry
     estimated scf accuracy    <       0.00005467 Ry

     iteration # 20     ecut=    35.00 Ry     beta= 0.70
     Davidson diagonalization with overlap
     ethr =  5.26E-08,  avg # of iterations =  4.0

     negative rho (up, down):  8.328E-04 0.000E+00

     total cpu time spent up to now is      219.4 secs

     End of self-consistent calculation

          k = 0.0000 0.0000 0.0000 (  8304 PWs)   bands (ev):

   -62.0743 -62.0383 -62.0329 -62.0309 -36.4712 -36.4700 -36.4675 -36.1786
   -36.1775 -36.1749 -36.0882 -36.0881 -36.0387 -35.9646 -35.9595 -35.9575
   -15.1927 -13.9642 -13.2776 -13.2767 -13.2757 -13.1442 -13.1433 -13.1426
    -6.9308  -6.9297  -6.9292  -6.7418  -5.9613  -5.9606  -5.9602  -5.1900
    -5.1897  -5.1884  -4.1886  -4.1879  -4.1870  -3.7046  -3.7045  -3.0692
    -3.0687  -3.0683  -2.9660  -2.4981  -2.4979  -2.0262  -2.0259  -2.0258
    -1.8418  -1.8417  -1.8414  -1.2416

     highest occupied level (ev):    -1.2416

!    total energy              =    -741.92447027 Ry
     Harris-Foulkes estimate   =    -741.92448954 Ry
     estimated scf accuracy    <       0.00002085 Ry

     The total energy is the sum of the following terms:

     one-electron contribution =   -4483.90763283 Ry
     hartree contribution      =    2241.23581151 Ry
     xc contribution           =    -130.20062778 Ry
     ewald contribution        =    1630.94797882 Ry

     convergence has been achieved in  20 iterations

     negative rho (up, down):  8.328E-04 0.000E+00

     Forces acting on atoms (cartesian axes, Ry/au):

     atom    1 type  1   force =    -0.00000000   -0.00006455   -0.00000000
     atom    2 type  2   force =    -0.00010911   -0.00006299    0.00017110
     atom    3 type  2   force =    -0.00010911   -0.00006299   -0.00017110
     atom    4 type  1   force =    -0.00005590    0.00003227   -0.00000000
     atom    5 type  2   force =     0.00000000    0.00000000    0.00028873
     atom    6 type  2   force =    -0.00000000   -0.00000000   -0.00028873
     atom    7 type  1   force =     0.00000000    0.00000000    0.00000000
     atom    8 type  2   force =     0.00010911   -0.00006299    0.00017110
     atom    9 type  2   force =     0.00010911   -0.00006299   -0.00017110
     atom   10 type  1   force =     0.00005590    0.00003227    0.00000000
     atom   11 type  2   force =     0.00000000    0.00012599    0.00017110
     atom   12 type  2   force =    -0.00000000    0.00012599   -0.00017110

     Total force =     0.000671     Total SCF correction =     0.013740
     SCF correction compared to forces is large: reduce conv_thr to get better values


     Computing stress (Cartesian axis) and pressure


     negative rho (up, down):  8.328E-04 0.000E+00
          total   stress  (Ry/bohr**3)                   (kbar)     P=        0.37
   0.00000272  -0.00000000   0.00000000            0.40       -0.00        0.00
  -0.00000000   0.00000272   0.00000000           -0.00        0.40        0.00
   0.00000000   0.00000000   0.00000213            0.00        0.00        0.31


     bfgs converged in   8 scf cycles and   7 bfgs steps
     (criteria: energy <  1.0E-04 Ry, force <  1.0E-03Ry/Bohr, cell <  5.0E-01kbar)

     End of BFGS Geometry Optimization

     Final enthalpy =    -741.9244702741 Ry
Begin final coordinates
     new unit-cell volume =   4698.01893 a.u.^3 (   696.17457 Ang^3 )
     density =      1.52722 g/cm^3

CELL_PARAMETERS (angstrom)
   6.335942901   0.000000000   0.000000000
  -3.167971450   5.487087509  -0.000000000
  -0.000000000  -0.000000000  20.024653720

ATOMIC_POSITIONS (angstrom)
Mo           -0.0000158399        1.8289983316       10.0123268600
S             1.5838480015        0.9144167797        8.4163691132
S             1.5838480015        0.9144167797       11.6082846067
Mo           -1.5840361915        4.5726020608       10.0123268600
S             0.0000158399        3.6580491941        8.4163059218
S             0.0000158399        3.6580491941       11.6083477981
Mo            3.1679556105        1.8290383148       10.0123268600
S             4.7521265789        0.9144167797        8.4163691132
S             4.7521265789        0.9144167797       11.6082846067
Mo            1.5840045118        4.5726020608       10.0123268600
S             3.1679872902        3.6582265139        8.4163691132
S             3.1679872902        3.6582265139       11.6082846067
End final coordinates



     Writing output data file ./pwscf.save/

     Final scf calculation at the relaxed structure.
     The G-vectors are recalculated for the final unit cell
     Results may differ from those at the preceding step.

     G-vector sticks info
     --------------------
     sticks:   dense  smooth     PW     G-vecs:    dense   smooth      PW
     Sum        1393    1393    349               131471   131471   16475



     bravais-lattice index     =            0
     lattice parameter (alat)  =      12.0577  a.u.
     unit-cell volume          =    4698.0189 (a.u.)^3
     number of atoms/cell      =           12
     number of atomic types    =            2
     number of electrons       =       104.00
     number of Kohn-Sham states=           52
     kinetic-energy cutoff     =      35.0000  Ry
     charge density cutoff     =     140.0000  Ry
     convergence threshold     =      5.0E-05
     mixing beta               =       0.7000
     number of iterations used =            8  plain     mixing
     Exchange-correlation=  SLA  PW   PBX  PBC
                           (   1   4   3   4   0   0   0)

     celldm(1)=  12.057662  celldm(2)=   0.000000  celldm(3)=   0.000000
     celldm(4)=   0.000000  celldm(5)=   0.000000  celldm(6)=   0.000000

     crystal axes: (cart. coord. in units of alat)
               a(1) = (   0.992995   0.000000   0.000000 )  
               a(2) = (  -0.496497   0.859959  -0.000000 )  
               a(3) = (  -0.000000  -0.000000   3.138346 )  

     reciprocal axes: (cart. coord. in units 2 pi/alat)
               b(1) = (  1.007055  0.581423  0.000000 )  
               b(2) = ( -0.000000  1.162846  0.000000 )  
               b(3) = ( -0.000000  0.000000  0.318639 )  


     PseudoPot. # 1 for Mo read from file:
     ../../pseudos/Mo_ONCV_PBE-1.0.oncvpsp.upf
     MD5 check sum: 1b5d28e075c9ccadda658a603575cd1f
     Pseudo is Norm-conserving, Zval = 14.0
     Generated using ONCVPSP code by D. R. Hamann
     Using radial grid of 1526 points,  6 beta functions with: 
                l(1) =   0
                l(2) =   0
                l(3) =   1
                l(4) =   1
                l(5) =   2
                l(6) =   2

     PseudoPot. # 2 for S  read from file:
     ../../pseudos/s_pbe_v1.4.uspp.F.UPF
     MD5 check sum: 88d86576ff6df21479756cfb9bdac1df
     Pseudo is Ultrasoft + core correction, Zval =  6.0
     Generated by new atomic code, or converted to UPF format
     Using radial grid of  907 points,  6 beta functions with: 
                l(1) =   0
                l(2) =   0
                l(3) =   1
                l(4) =   1
                l(5) =   2
                l(6) =   2
     Q(r) pseudized with  8 coefficients,  rinner =    1.300   1.300   1.300
                                                       1.300   1.300

     atomic species   valence    mass     pseudopotential
        Mo            14.00    95.95000     Mo( 1.00)
        S              6.00    32.06000     S ( 1.00)

     12 Sym. Ops. (no inversion) found



   Cartesian axes

     site n.     atom                  positions (alat units)
         1           Mo  tau(   1) = (  -0.0000025   0.2866481   1.5691728  )
         2           S   tau(   2) = (   0.2482271   0.1433111   1.3190478  )
         3           S   tau(   3) = (   0.2482271   0.1433111   1.8192978  )
         4           Mo  tau(   4) = (  -0.2482566   0.7166369   1.5691728  )
         5           S   tau(   5) = (   0.0000025   0.5733044   1.3190379  )
         6           S   tau(   6) = (   0.0000025   0.5733044   1.8193077  )
         7           Mo  tau(   7) = (   0.4964950   0.2866544   1.5691728  )
         8           S   tau(   8) = (   0.7447727   0.1433111   1.3190478  )
         9           S   tau(   9) = (   0.7447727   0.1433111   1.8192978  )
        10           Mo  tau(  10) = (   0.2482517   0.7166369   1.5691728  )
        11           S   tau(  11) = (   0.4964999   0.5733322   1.3190478  )
        12           S   tau(  12) = (   0.4964999   0.5733322   1.8192978  )

     number of k points=     1
                       cart. coord. in units 2pi/alat
        k(    1) = (   0.0000000   0.0000000   0.0000000), wk =   2.0000000

     Dense  grid:    65736 G-vectors     FFT dimensions: (  45,  45, 144)

     Estimated max dynamical RAM per process >     312.48 MB

     Initial potential from superposition of free atoms

     starting charge  103.99576, renormalised to  104.00000

     negative rho (up, down):  1.227E-03 0.000E+00
     Starting wfcs are   72 randomized atomic wfcs

     total cpu time spent up to now is      230.8 secs

     Self-consistent Calculation

     iteration #  1     ecut=    35.00 Ry     beta= 0.70
     Davidson diagonalization with overlap
     ethr =  1.00E-06,  avg # of iterations =  9.0

     negative rho (up, down):  1.025E-03 0.000E+00

     total cpu time spent up to now is      232.7 secs

     total energy              =    -741.77276759 Ry
     Harris-Foulkes estimate   =    -742.05772080 Ry
     estimated scf accuracy    <       0.45855295 Ry

     iteration #  2     ecut=    35.00 Ry     beta= 0.70
     Davidson diagonalization with overlap
     ethr =  4.41E-04,  avg # of iterations =  3.0

     negative rho (up, down):  9.303E-04 0.000E+00

     total cpu time spent up to now is      233.9 secs

     total energy              =    -741.72791704 Ry
     Harris-Foulkes estimate   =    -742.05843096 Ry
     estimated scf accuracy    <       0.68954407 Ry

     iteration #  3     ecut=    35.00 Ry     beta= 0.70
     Davidson diagonalization with overlap
     ethr =  4.41E-04,  avg # of iterations =  5.0

     negative rho (up, down):  8.761E-04 0.000E+00

     total cpu time spent up to now is      235.2 secs

     total energy              =    -741.87071055 Ry
     Harris-Foulkes estimate   =    -741.97756576 Ry
     estimated scf accuracy    <       0.33554031 Ry

     iteration #  4     ecut=    35.00 Ry     beta= 0.70
     Davidson diagonalization with overlap
     ethr =  3.23E-04,  avg # of iterations =  3.0

     negative rho (up, down):  8.519E-04 0.000E+00

     total cpu time spent up to now is      236.3 secs

     total energy              =    -741.92265683 Ry
     Harris-Foulkes estimate   =    -741.92401188 Ry
     estimated scf accuracy    <       0.00399793 Ry

     iteration #  5     ecut=    35.00 Ry     beta= 0.70
     Davidson diagonalization with overlap
     ethr =  3.84E-06,  avg # of iterations =  5.0

     negative rho (up, down):  8.482E-04 0.000E+00

     total cpu time spent up to now is      237.7 secs

     total energy              =    -741.92405677 Ry
     Harris-Foulkes estimate   =    -741.92460155 Ry
     estimated scf accuracy    <       0.00181608 Ry

     iteration #  6     ecut=    35.00 Ry     beta= 0.70
     Davidson diagonalization with overlap
     ethr =  1.75E-06,  avg # of iterations =  4.0

     negative rho (up, down):  8.453E-04 0.000E+00

     total cpu time spent up to now is      238.9 secs

     total energy              =    -741.92406499 Ry
     Harris-Foulkes estimate   =    -741.92481708 Ry
     estimated scf accuracy    <       0.00368085 Ry

     iteration #  7     ecut=    35.00 Ry     beta= 0.70
     Davidson diagonalization with overlap
     ethr =  1.75E-06,  avg # of iterations =  4.0

     negative rho (up, down):  8.446E-04 0.000E+00

     total cpu time spent up to now is      240.1 secs

     total energy              =    -741.92440194 Ry
     Harris-Foulkes estimate   =    -741.92444251 Ry
     estimated scf accuracy    <       0.00014962 Ry

     iteration #  8     ecut=    35.00 Ry     beta= 0.70
     Davidson diagonalization with overlap
     ethr =  1.44E-07,  avg # of iterations =  4.0

     negative rho (up, down):  8.447E-04 0.000E+00

     total cpu time spent up to now is      241.3 secs

     End of self-consistent calculation

          k = 0.0000 0.0000 0.0000 (  8238 PWs)   bands (ev):

   -62.0718 -62.0357 -62.0327 -62.0256 -36.4693 -36.4662 -36.4648 -36.1767
   -36.1737 -36.1722 -36.0853 -36.0852 -36.0366 -35.9624 -35.9596 -35.9531
   -15.1917 -13.9636 -13.2769 -13.2754 -13.2747 -13.1437 -13.1421 -13.1417
    -6.9295  -6.9288  -6.9281  -6.7406  -5.9603  -5.9600  -5.9595  -5.1888
    -5.1882  -5.1872  -4.1869  -4.1863  -4.1857  -3.7024  -3.7023  -3.0691
    -3.0679  -3.0677  -2.9656  -2.4965  -2.4962  -2.0251  -2.0250  -2.0249
    -1.8404  -1.8401  -1.8400  -1.2404

     highest occupied level (ev):    -1.2404

!    total energy              =    -741.92442153 Ry
     Harris-Foulkes estimate   =    -741.92443534 Ry
     estimated scf accuracy    <       0.00001497 Ry

     The total energy is the sum of the following terms:

     one-electron contribution =   -4483.83000285 Ry
     hartree contribution      =    2241.15680524 Ry
     xc contribution           =    -130.19920274 Ry
     ewald contribution        =    1630.94797882 Ry

     convergence has been achieved in   8 iterations

     negative rho (up, down):  8.447E-04 0.000E+00

     Forces acting on atoms (cartesian axes, Ry/au):

     atom    1 type  1   force =     0.00000000    0.00006175    0.00000000
     atom    2 type  2   force =     0.00005085    0.00002936    0.00013085
     atom    3 type  2   force =     0.00005085    0.00002936   -0.00013085
     atom    4 type  1   force =     0.00005348   -0.00003088    0.00000000
     atom    5 type  2   force =    -0.00000000    0.00000000    0.00008771
     atom    6 type  2   force =     0.00000000    0.00000000   -0.00008771
     atom    7 type  1   force =     0.00000000   -0.00000000   -0.00000000
     atom    8 type  2   force =    -0.00005085    0.00002936    0.00013085
     atom    9 type  2   force =    -0.00005085    0.00002936   -0.00013085
     atom   10 type  1   force =    -0.00005348   -0.00003088   -0.00000000
     atom   11 type  2   force =     0.00000000   -0.00005871    0.00013085
     atom   12 type  2   force =     0.00000000   -0.00005871   -0.00013085

     Total force =     0.000388     Total SCF correction =     0.012170
     SCF correction compared to forces is large: reduce conv_thr to get better values


     Computing stress (Cartesian axis) and pressure


     negative rho (up, down):  8.447E-04 0.000E+00
          total   stress  (Ry/bohr**3)                   (kbar)     P=        0.22
   0.00000257  -0.00000000   0.00000000            0.38       -0.00        0.00
  -0.00000000   0.00000257   0.00000000           -0.00        0.38        0.00
   0.00000000   0.00000000  -0.00000063            0.00        0.00       -0.09


     Writing output data file ./pwscf.save/

     init_run     :      7.93s CPU      8.04s WALL (       2 calls)
     electrons    :    159.92s CPU    142.67s WALL (       9 calls)
     update_pot   :     30.94s CPU     31.13s WALL (       7 calls)
     forces       :     19.30s CPU     19.49s WALL (       9 calls)
     stress       :     52.95s CPU     45.66s WALL (       9 calls)

     Called by init_run:
     wfcinit      :      0.57s CPU      0.52s WALL (       2 calls)
     potinit      :      2.66s CPU      2.70s WALL (       2 calls)
     hinit0       :      4.38s CPU      4.42s WALL (       2 calls)

     Called by electrons:
     c_bands      :     86.53s CPU     68.59s WALL (     122 calls)
     sum_band     :     43.95s CPU     37.26s WALL (     122 calls)
     v_of_rho     :     11.78s CPU     13.62s WALL (     130 calls)
     newd         :     17.52s CPU     22.77s WALL (     130 calls)
     mix_rho      :      1.84s CPU      2.51s WALL (     122 calls)

     Called by c_bands:
     init_us_2    :      1.25s CPU      1.28s WALL (     246 calls)
     regterg      :     79.06s CPU     61.02s WALL (     122 calls)

     Called by sum_band:
     sum_band:bec :      0.00s CPU      0.00s WALL (     122 calls)
     addusdens    :     32.42s CPU     26.67s WALL (     122 calls)

     Called by *egterg:
     h_psi        :     56.07s CPU     47.59s WALL (     546 calls)
     s_psi        :      7.72s CPU      1.58s WALL (     546 calls)
     g_psi        :      0.34s CPU      0.34s WALL (     422 calls)
     rdiaghg      :      1.65s CPU      1.49s WALL (     536 calls)

     Called by h_psi:
     h_psi:calbec :      5.12s CPU      1.76s WALL (     546 calls)
     vloc_psi     :     43.62s CPU     43.88s WALL (     546 calls)
     add_vuspsi   :      7.00s CPU      1.61s WALL (     546 calls)

     General routines
     calbec       :      7.17s CPU      2.47s WALL (     713 calls)
     fft          :      5.53s CPU      5.56s WALL (    1358 calls)
     ffts         :      0.55s CPU      0.55s WALL (     122 calls)
     fftw         :     44.82s CPU     45.07s WALL (   20892 calls)


     PWSCF        :   4m32.24s CPU   4m 8.50s WALL


   This run was terminated on:  17:43: 9  26Sep2020            

=------------------------------------------------------------------------------=
   JOB DONE.
=------------------------------------------------------------------------------=
