
     Program PWSCF v.6.5 starts on 25Sep2020 at 14:22: 0 

     This program is part of the open-source Quantum ESPRESSO suite
     for quantum simulation of materials; please cite
         "P. Giannozzi et al., J. Phys.:Condens. Matter 21 395502 (2009);
         "P. Giannozzi et al., J. Phys.:Condens. Matter 29 465901 (2017);
          URL http://www.quantum-espresso.org", 
     in publications or presentations arising from this work. More details at
     http://www.quantum-espresso.org/quote

     Serial version
     Waiting for input...
     Reading input from standard input

     Current dimensions of program PWSCF are:
     Max number of different atomic species (ntypx) = 10
     Max number of k-points (npk) =  40000
     Max angular momentum in pseudopotentials (lmaxx) =  3

     gamma-point specific algorithms are used
     Message from routine setup:
     using ibrav=0 with symmetry is DISCOURAGED, use correct ibrav instead

     G-vector sticks info
     --------------------
     sticks:   dense  smooth     PW     G-vecs:    dense   smooth      PW
     Sum         349     349     85                33263    33263    4163



     bravais-lattice index     =            0
     lattice parameter (alat)  =       6.0288  a.u.
     unit-cell volume          =    1189.6679 (a.u.)^3
     number of atoms/cell      =            3
     number of atomic types    =            2
     number of electrons       =        26.00
     number of Kohn-Sham states=           13
     kinetic-energy cutoff     =      35.0000  Ry
     charge density cutoff     =     140.0000  Ry
     convergence threshold     =      5.0E-03
     mixing beta               =       0.7000
     number of iterations used =            8  plain     mixing
     Exchange-correlation=  SLA  PW   PBX  PBC
                           (   1   4   3   4   0   0   0)
     nstep                     =           50


     celldm(1)=   6.028831  celldm(2)=   0.000000  celldm(3)=   0.000000
     celldm(4)=   0.000000  celldm(5)=   0.000000  celldm(6)=   0.000000

     crystal axes: (cart. coord. in units of alat)
               a(1) = (   1.000000   0.000000   0.000000 )  
               a(2) = (  -0.500000   0.866025   0.000000 )  
               a(3) = (   0.000000   0.000000   6.268964 )  

     reciprocal axes: (cart. coord. in units 2 pi/alat)
               b(1) = (  1.000000  0.577350 -0.000000 )  
               b(2) = (  0.000000  1.154701  0.000000 )  
               b(3) = (  0.000000 -0.000000  0.159516 )  


     PseudoPot. # 1 for Mo read from file:
     ../../pseudos/Mo_ONCV_PBE-1.0.oncvpsp.upf
     MD5 check sum: 1b5d28e075c9ccadda658a603575cd1f
     Pseudo is Norm-conserving, Zval = 14.0
     Generated using ONCVPSP code by D. R. Hamann
     Using radial grid of 1526 points,  6 beta functions with: 
                l(1) =   0
                l(2) =   0
                l(3) =   1
                l(4) =   1
                l(5) =   2
                l(6) =   2

     PseudoPot. # 2 for S  read from file:
     ../../pseudos/s_pbe_v1.4.uspp.F.UPF
     MD5 check sum: 88d86576ff6df21479756cfb9bdac1df
     Pseudo is Ultrasoft + core correction, Zval =  6.0
     Generated by new atomic code, or converted to UPF format
     Using radial grid of  907 points,  6 beta functions with: 
                l(1) =   0
                l(2) =   0
                l(3) =   1
                l(4) =   1
                l(5) =   2
                l(6) =   2
     Q(r) pseudized with  8 coefficients,  rinner =    1.300   1.300   1.300
                                                       1.300   1.300

     atomic species   valence    mass     pseudopotential
        Mo            14.00    95.95000     Mo( 1.00)
        S              6.00    32.06000     S ( 1.00)

      4 Sym. Ops. (no inversion) found



   Cartesian axes

     site n.     atom                  positions (alat units)
         1           Mo  tau(   1) = (  -0.0000050   0.5773532   3.1344818  )
         2           S   tau(   2) = (   0.5000050   0.2886722   2.6439981  )
         3           S   tau(   3) = (   0.5000050   0.2886722   3.6249655  )

     number of k points=     1
                       cart. coord. in units 2pi/alat
        k(    1) = (   0.0000000   0.0000000   0.0000000), wk =   2.0000000

     Dense  grid:    16632 G-vectors     FFT dimensions: (  24,  24, 144)

     Estimated max dynamical RAM per process >      69.91 MB

     Initial potential from superposition of free atoms

     starting charge   25.99894, renormalised to   26.00000

     negative rho (up, down):  3.060E-04 0.000E+00
     Starting wfcs are   18 randomized atomic wfcs

     total cpu time spent up to now is        1.3 secs

     Self-consistent Calculation

     iteration #  1     ecut=    35.00 Ry     beta= 0.70
     Davidson diagonalization with overlap
     ethr =  1.00E-02,  avg # of iterations =  2.0

     negative rho (up, down):  1.478E-04 0.000E+00

     total cpu time spent up to now is        1.5 secs

     total energy              =    -184.02946154 Ry
     Harris-Foulkes estimate   =    -185.16418919 Ry
     estimated scf accuracy    <       1.43885375 Ry

     iteration #  2     ecut=    35.00 Ry     beta= 0.70
     Davidson diagonalization with overlap
     ethr =  5.53E-03,  avg # of iterations =  6.0

     negative rho (up, down):  5.278E-06 0.000E+00

     total cpu time spent up to now is        1.7 secs

     total energy              =    -182.76898828 Ry
     Harris-Foulkes estimate   =    -187.96288294 Ry
     estimated scf accuracy    <      22.96424084 Ry

     iteration #  3     ecut=    35.00 Ry     beta= 0.70
     Davidson diagonalization with overlap
     ethr =  5.53E-03,  avg # of iterations =  5.0

     negative rho (up, down):  1.157E-05 0.000E+00

     total cpu time spent up to now is        1.8 secs

     total energy              =    -184.90809874 Ry
     Harris-Foulkes estimate   =    -185.08509237 Ry
     estimated scf accuracy    <       0.53552387 Ry

     iteration #  4     ecut=    35.00 Ry     beta= 0.70
     Davidson diagonalization with overlap
     ethr =  2.06E-03,  avg # of iterations =  3.0

     negative rho (up, down):  1.710E-05 0.000E+00

     total cpu time spent up to now is        2.0 secs

     total energy              =    -184.94518950 Ry
     Harris-Foulkes estimate   =    -184.97586818 Ry
     estimated scf accuracy    <       0.06237272 Ry

     iteration #  5     ecut=    35.00 Ry     beta= 0.70
     Davidson diagonalization with overlap
     ethr =  2.40E-04,  avg # of iterations =  5.0

     negative rho (up, down):  2.412E-05 0.000E+00

     total cpu time spent up to now is        2.2 secs

     total energy              =    -184.91352152 Ry
     Harris-Foulkes estimate   =    -185.04064243 Ry
     estimated scf accuracy    <       0.88932668 Ry

     iteration #  6     ecut=    35.00 Ry     beta= 0.70
     Davidson diagonalization with overlap
     ethr =  2.40E-04,  avg # of iterations =  5.0

     negative rho (up, down):  4.907E-05 0.000E+00

     total cpu time spent up to now is        2.4 secs

     total energy              =    -184.97185869 Ry
     Harris-Foulkes estimate   =    -184.97377394 Ry
     estimated scf accuracy    <       0.00654923 Ry

     iteration #  7     ecut=    35.00 Ry     beta= 0.70
     Davidson diagonalization with overlap
     ethr =  2.52E-05,  avg # of iterations =  2.0

     negative rho (up, down):  1.878E-04 0.000E+00

     total cpu time spent up to now is        2.5 secs

     End of self-consistent calculation

          k = 0.0000 0.0000 0.0000 (  2082 PWs)   bands (ev):

   -61.2969 -35.4047 -35.4046 -35.3755 -16.4610 -15.3498  -7.4536  -4.3604
    -4.3603  -3.9520  -3.4628  -3.4623  -1.5098

     highest occupied level (ev):    -1.5098

!    total energy              =    -184.97224674 Ry
     Harris-Foulkes estimate   =    -184.97268396 Ry
     estimated scf accuracy    <       0.00075600 Ry

     The total energy is the sum of the following terms:

     one-electron contribution =   -1112.26089949 Ry
     hartree contribution      =     556.22471588 Ry
     xc contribution           =     -32.73561539 Ry
     ewald contribution        =     403.79955226 Ry

     convergence has been achieved in   7 iterations

     negative rho (up, down):  1.878E-04 0.000E+00

     Forces acting on atoms (cartesian axes, Ry/au):

     atom    1 type  1   force =    -0.00007228    0.00004173    0.00000000
     atom    2 type  2   force =     0.00003614   -0.00002087    0.10833370
     atom    3 type  2   force =     0.00003614   -0.00002087   -0.10833370

     Total force =     0.153207     Total SCF correction =     0.029757
     SCF correction compared to forces is large: reduce conv_thr to get better values


     Computing stress (Cartesian axis) and pressure


     negative rho (up, down):  1.878E-04 0.000E+00
          total   stress  (Ry/bohr**3)                   (kbar)     P=       35.72
   0.00063033  -0.00000027   0.00000000           92.72       -0.04        0.00
  -0.00000027   0.00063001   0.00000000           -0.04       92.68        0.00
  -0.00000000  -0.00000000  -0.00053187           -0.00       -0.00      -78.24


     BFGS Geometry Optimization

     number of scf cycles    =   1
     number of bfgs steps    =   0

     enthalpy new            =    -184.9722467389 Ry

     new trust radius        =       0.1087054281 bohr
     new conv_thr            =       0.0050000000 Ry

     new unit-cell volume =   1211.12681 a.u.^3 (   179.47048 Ang^3 )
     density =      1.48104 g/cm^3

CELL_PARAMETERS (angstrom)
   3.240593901  -0.000021795  -0.000000000
  -1.620315825   2.806425744  -0.000000000
   0.000000000   0.000000000  19.734064045

ATOMIC_POSITIONS (angstrom)
Mo           -0.0000676393        1.8709750178        9.8670320225
S             1.6203262883        0.9354401474        8.3796043031
S             1.6203262883        0.9354401474       11.3544597420



     Writing output data file ./pwscf.save/
     NEW-OLD atomic charge density approx. for the potential

     negative rho (up, down):  2.182E-04 0.000E+00
     extrapolated charge   26.46065, renormalised to   26.00000

     total cpu time spent up to now is        5.3 secs

     Self-consistent Calculation

     iteration #  1     ecut=    35.00 Ry     beta= 0.70
     Davidson diagonalization with overlap
     ethr =  1.00E-06,  avg # of iterations = 14.0

     total cpu time spent up to now is        5.6 secs

     total energy              =     -64.45689563 Ry
     Harris-Foulkes estimate   =    -169.46940462 Ry
     estimated scf accuracy    <     129.84235486 Ry

     iteration #  2     ecut=    35.00 Ry     beta= 0.70
     Davidson diagonalization with overlap
     ethr =  1.00E-02,  avg # of iterations = 17.0

     total cpu time spent up to now is        5.9 secs

     total energy              =    -198.96344245 Ry
     Harris-Foulkes estimate   =    -273.49148159 Ry
     estimated scf accuracy    <     133.32308187 Ry

     iteration #  3     ecut=    35.00 Ry     beta= 0.70
     Davidson diagonalization with overlap
     ethr =  1.00E-02,  avg # of iterations = 11.0

     total cpu time spent up to now is        6.1 secs

     total energy              =    -198.99847100 Ry
     Harris-Foulkes estimate   =    -211.00274701 Ry
     estimated scf accuracy    <      32.21190313 Ry

     iteration #  4     ecut=    35.00 Ry     beta= 0.70
     Davidson diagonalization with overlap
     ethr =  1.00E-02,  avg # of iterations =  8.0

     total cpu time spent up to now is        6.3 secs

     total energy              =    -193.16879285 Ry
     Harris-Foulkes estimate   =    -200.99244519 Ry
     estimated scf accuracy    <      24.76153476 Ry

     iteration #  5     ecut=    35.00 Ry     beta= 0.70
     Davidson diagonalization with overlap
     ethr =  1.00E-02,  avg # of iterations =  3.0

     total cpu time spent up to now is        6.5 secs

     total energy              =    -189.34985566 Ry
     Harris-Foulkes estimate   =    -193.44770375 Ry
     estimated scf accuracy    <      13.52171421 Ry

     iteration #  6     ecut=    35.00 Ry     beta= 0.70
     Davidson diagonalization with overlap
     ethr =  1.00E-02,  avg # of iterations =  4.0

     total cpu time spent up to now is        6.7 secs

     total energy              =    -189.11374375 Ry
     Harris-Foulkes estimate   =    -189.65995762 Ry
     estimated scf accuracy    <       8.07738603 Ry

     iteration #  7     ecut=    35.00 Ry     beta= 0.70
     Davidson diagonalization with overlap
     ethr =  1.00E-02,  avg # of iterations =  1.0

     total cpu time spent up to now is        6.8 secs

     total energy              =    -186.03144979 Ry
     Harris-Foulkes estimate   =    -189.16219276 Ry
     estimated scf accuracy    <       7.24711306 Ry

     iteration #  8     ecut=    35.00 Ry     beta= 0.70
     Davidson diagonalization with overlap
     ethr =  1.00E-02,  avg # of iterations =  4.0

     total cpu time spent up to now is        7.0 secs

     total energy              =    -187.46977546 Ry
     Harris-Foulkes estimate   =    -187.76635640 Ry
     estimated scf accuracy    <      12.75505456 Ry

     iteration #  9     ecut=    35.00 Ry     beta= 0.70
     Davidson diagonalization with overlap
     ethr =  1.00E-02,  avg # of iterations =  1.0

     total cpu time spent up to now is        7.2 secs

     total energy              =    -187.19460851 Ry
     Harris-Foulkes estimate   =    -187.51236434 Ry
     estimated scf accuracy    <      11.00047474 Ry

     iteration # 10     ecut=    35.00 Ry     beta= 0.70
     Davidson diagonalization with overlap
     ethr =  1.00E-02,  avg # of iterations =  1.0

     negative rho (up, down):  1.626E-04 0.000E+00

     total cpu time spent up to now is        7.4 secs

     total energy              =    -183.78081695 Ry
     Harris-Foulkes estimate   =    -187.22464921 Ry
     estimated scf accuracy    <       9.96146753 Ry

     iteration # 11     ecut=    35.00 Ry     beta= 0.70
     Davidson diagonalization with overlap
     ethr =  1.00E-02,  avg # of iterations =  5.0

     negative rho (up, down):  2.347E-05 0.000E+00

     total cpu time spent up to now is        7.6 secs

     total energy              =    -184.97687082 Ry
     Harris-Foulkes estimate   =    -185.48562491 Ry
     estimated scf accuracy    <       3.91015515 Ry

     iteration # 12     ecut=    35.00 Ry     beta= 0.70
     Davidson diagonalization with overlap
     ethr =  1.00E-02,  avg # of iterations =  3.0

     total cpu time spent up to now is        7.8 secs

     total energy              =    -185.84547445 Ry
     Harris-Foulkes estimate   =    -185.39179156 Ry
     estimated scf accuracy    <       2.38468548 Ry

     iteration # 13     ecut=    35.00 Ry     beta= 0.70
     Davidson diagonalization with overlap
     ethr =  9.17E-03,  avg # of iterations =  3.0

     total cpu time spent up to now is        8.0 secs

     total energy              =    -186.93911125 Ry
     Harris-Foulkes estimate   =    -187.72815711 Ry
     estimated scf accuracy    <      37.31539799 Ry

     iteration # 14     ecut=    35.00 Ry     beta= 0.70
     Davidson diagonalization with overlap
     ethr =  9.17E-03,  avg # of iterations =  1.0

     negative rho (up, down):  1.978E-02 0.000E+00

     total cpu time spent up to now is        8.1 secs

     total energy              =    -184.83974452 Ry
     Harris-Foulkes estimate   =    -186.96606865 Ry
     estimated scf accuracy    <      34.54790419 Ry

     iteration # 15     ecut=    35.00 Ry     beta= 0.70
     Davidson diagonalization with overlap
     ethr =  9.17E-03,  avg # of iterations =  5.0

     negative rho (up, down):  1.971E-03 0.000E+00

     total cpu time spent up to now is        8.3 secs

     total energy              =    -182.43657056 Ry
     Harris-Foulkes estimate   =    -185.56199190 Ry
     estimated scf accuracy    <       7.10343320 Ry

     iteration # 16     ecut=    35.00 Ry     beta= 0.70
     Davidson diagonalization with overlap
     ethr =  9.17E-03,  avg # of iterations =  5.0

     total cpu time spent up to now is        8.5 secs

     total energy              =    -185.86282609 Ry
     Harris-Foulkes estimate   =    -189.07640433 Ry
     estimated scf accuracy    <      34.00818546 Ry

     iteration # 17     ecut=    35.00 Ry     beta= 0.70
     Davidson diagonalization with overlap
     ethr =  9.17E-03,  avg # of iterations =  3.0

     total cpu time spent up to now is        8.7 secs

     total energy              =    -183.11959207 Ry
     Harris-Foulkes estimate   =    -186.22991890 Ry
     estimated scf accuracy    <      16.92077624 Ry

     iteration # 18     ecut=    35.00 Ry     beta= 0.70
     Davidson diagonalization with overlap
     ethr =  9.17E-03,  avg # of iterations =  4.0

     negative rho (up, down):  3.204E-03 0.000E+00

     total cpu time spent up to now is        8.9 secs

     total energy              =    -184.92185242 Ry
     Harris-Foulkes estimate   =    -185.44090133 Ry
     estimated scf accuracy    <       2.03624773 Ry

     iteration # 19     ecut=    35.00 Ry     beta= 0.70
     Davidson diagonalization with overlap
     ethr =  7.83E-03,  avg # of iterations =  2.0

     negative rho (up, down):  1.015E-03 0.000E+00

     total cpu time spent up to now is        9.1 secs

     total energy              =    -185.07179039 Ry
     Harris-Foulkes estimate   =    -185.08155610 Ry
     estimated scf accuracy    <       0.28096654 Ry

     iteration # 20     ecut=    35.00 Ry     beta= 0.70
     Davidson diagonalization with overlap
     ethr =  1.08E-03,  avg # of iterations =  4.0

     total cpu time spent up to now is        9.3 secs

     total energy              =    -185.01820477 Ry
     Harris-Foulkes estimate   =    -185.11370544 Ry
     estimated scf accuracy    <       0.24247932 Ry

     iteration # 21     ecut=    35.00 Ry     beta= 0.70
     Davidson diagonalization with overlap
     ethr =  9.33E-04,  avg # of iterations =  2.0

     negative rho (up, down):  2.458E-08 0.000E+00

     total cpu time spent up to now is        9.5 secs

     total energy              =    -185.03687668 Ry
     Harris-Foulkes estimate   =    -185.04291821 Ry
     estimated scf accuracy    <       0.07604962 Ry

     iteration # 22     ecut=    35.00 Ry     beta= 0.70
     Davidson diagonalization with overlap
     ethr =  2.92E-04,  avg # of iterations =  3.0

     negative rho (up, down):  3.014E-05 0.000E+00

     total cpu time spent up to now is        9.6 secs

     total energy              =    -185.01518440 Ry
     Harris-Foulkes estimate   =    -185.04542958 Ry
     estimated scf accuracy    <       0.13839318 Ry

     iteration # 23     ecut=    35.00 Ry     beta= 0.70
     Davidson diagonalization with overlap
     ethr =  2.92E-04,  avg # of iterations =  4.0

     negative rho (up, down):  7.102E-03 0.000E+00

     total cpu time spent up to now is        9.8 secs

     total energy              =    -185.01904078 Ry
     Harris-Foulkes estimate   =    -185.02931703 Ry
     estimated scf accuracy    <       0.03606547 Ry

     iteration # 24     ecut=    35.00 Ry     beta= 0.70
     Davidson diagonalization with overlap
     ethr =  1.39E-04,  avg # of iterations =  4.0

     negative rho (up, down):  2.044E-03 0.000E+00

     total cpu time spent up to now is       10.0 secs

     total energy              =    -185.01520576 Ry
     Harris-Foulkes estimate   =    -185.03385025 Ry
     estimated scf accuracy    <       0.14645124 Ry

     iteration # 25     ecut=    35.00 Ry     beta= 0.70
     Davidson diagonalization with overlap
     ethr =  1.39E-04,  avg # of iterations =  3.0

     negative rho (up, down):  1.124E-04 0.000E+00

     total cpu time spent up to now is       10.2 secs

     total energy              =    -185.01692067 Ry
     Harris-Foulkes estimate   =    -185.02154807 Ry
     estimated scf accuracy    <       0.02326944 Ry

     iteration # 26     ecut=    35.00 Ry     beta= 0.70
     Davidson diagonalization with overlap
     ethr =  8.95E-05,  avg # of iterations =  3.0

     negative rho (up, down):  1.834E-04 0.000E+00

     total cpu time spent up to now is       10.4 secs

     End of self-consistent calculation

          k = 0.0000 0.0000 0.0000 (  2082 PWs)   bands (ev):

   -61.3127 -35.5033 -35.4963 -35.3129 -16.3988 -15.0633  -7.4593  -4.7885
    -4.7845  -3.7220  -3.7173  -3.5025  -1.0541

     highest occupied level (ev):    -1.0541

!    total energy              =    -185.01933363 Ry
     Harris-Foulkes estimate   =    -185.01968771 Ry
     estimated scf accuracy    <       0.00062089 Ry

     The total energy is the sum of the following terms:

     one-electron contribution =   -1079.16976012 Ry
     hartree contribution      =     539.22279623 Ry
     xc contribution           =     -32.76670221 Ry
     ewald contribution        =     387.69433248 Ry

     convergence has been achieved in  26 iterations

     negative rho (up, down):  1.834E-04 0.000E+00

     Forces acting on atoms (cartesian axes, Ry/au):

     atom    1 type  1   force =    -0.00044254    0.00025550   -0.00000000
     atom    2 type  2   force =     0.00022127   -0.00012775    0.05927645
     atom    3 type  2   force =     0.00022127   -0.00012775   -0.05927645

     Total force =     0.083832     Total SCF correction =     0.067274
     SCF correction compared to forces is large: reduce conv_thr to get better values


     Computing stress (Cartesian axis) and pressure


     negative rho (up, down):  1.834E-04 0.000E+00
          total   stress  (Ry/bohr**3)                   (kbar)     P=       32.82
   0.00050210  -0.00000744  -0.00000000           73.86       -1.09       -0.00
  -0.00000744   0.00049352  -0.00000000           -1.09       72.60       -0.00
  -0.00000000  -0.00000000  -0.00032636           -0.00       -0.00      -48.01


     number of scf cycles    =   2
     number of bfgs steps    =   1

     enthalpy old            =    -184.9722467389 Ry
     enthalpy new            =    -185.0193336292 Ry

     CASE: enthalpy_new < enthalpy_old

     new trust radius        =       0.1619698088 bohr
     new conv_thr            =       0.0029638225 Ry

     new unit-cell volume =   1247.10089 a.u.^3 (   184.80128 Ang^3 )
     density =      1.43832 g/cm^3

CELL_PARAMETERS (angstrom)
   3.315997265  -0.001085818  -0.000000000
  -1.658938978   2.871194962  -0.000000000
  -0.000000000  -0.000000000  19.413789216

ATOMIC_POSITIONS (angstrom)
Mo           -0.0011283331        1.9140575395        9.7068946078
S             1.6579441936        0.9561915695        8.3013493736
S             1.6579441936        0.9561915695       11.1124398421



     Writing output data file ./pwscf.save/
     NEW-OLD atomic charge density approx. for the potential

     negative rho (up, down):  2.572E-04 0.000E+00
     extrapolated charge   26.74997, renormalised to   26.00000

     total cpu time spent up to now is       13.3 secs

     Self-consistent Calculation

     iteration #  1     ecut=    35.00 Ry     beta= 0.70
     Davidson diagonalization with overlap
     ethr =  1.00E-06,  avg # of iterations = 15.0

     total cpu time spent up to now is       13.5 secs

     total energy              =      31.78942733 Ry
     Harris-Foulkes estimate   =    -164.82581547 Ry
     estimated scf accuracy    <     233.02042388 Ry

     iteration #  2     ecut=    35.00 Ry     beta= 0.70
     Davidson diagonalization with overlap
     c_bands:  2 eigenvalues not converged
     ethr =  1.00E-02,  avg # of iterations = 20.0

     total cpu time spent up to now is       13.8 secs

     total energy              =    -218.20900810 Ry
     Harris-Foulkes estimate   =    -330.93558981 Ry
     estimated scf accuracy    <     192.07463939 Ry

     iteration #  3     ecut=    35.00 Ry     beta= 0.70
     Davidson diagonalization with overlap
     ethr =  1.00E-02,  avg # of iterations = 11.0

     total cpu time spent up to now is       14.1 secs

     total energy              =    -210.33394161 Ry
     Harris-Foulkes estimate   =    -229.47338573 Ry
     estimated scf accuracy    <      54.23753086 Ry

     iteration #  4     ecut=    35.00 Ry     beta= 0.70
     Davidson diagonalization with overlap
     ethr =  1.00E-02,  avg # of iterations =  7.0

     total cpu time spent up to now is       14.3 secs

     total energy              =    -198.91115464 Ry
     Harris-Foulkes estimate   =    -211.94482071 Ry
     estimated scf accuracy    <      34.14852290 Ry

     iteration #  5     ecut=    35.00 Ry     beta= 0.70
     Davidson diagonalization with overlap
     ethr =  1.00E-02,  avg # of iterations =  7.0

     total cpu time spent up to now is       14.4 secs

     total energy              =    -196.74769140 Ry
     Harris-Foulkes estimate   =    -199.33890381 Ry
     estimated scf accuracy    <      18.01984654 Ry

     iteration #  6     ecut=    35.00 Ry     beta= 0.70
     Davidson diagonalization with overlap
     ethr =  1.00E-02,  avg # of iterations =  1.0

     total cpu time spent up to now is       14.6 secs

     total energy              =    -189.99027602 Ry
     Harris-Foulkes estimate   =    -196.80343482 Ry
     estimated scf accuracy    <      14.98164512 Ry

     iteration #  7     ecut=    35.00 Ry     beta= 0.70
     Davidson diagonalization with overlap
     ethr =  1.00E-02,  avg # of iterations =  6.0

     total cpu time spent up to now is       14.8 secs

     total energy              =    -191.78459868 Ry
     Harris-Foulkes estimate   =    -191.20891978 Ry
     estimated scf accuracy    <      14.83597474 Ry

     iteration #  8     ecut=    35.00 Ry     beta= 0.70
     Davidson diagonalization with overlap
     ethr =  1.00E-02,  avg # of iterations =  1.0

     total cpu time spent up to now is       15.0 secs

     total energy              =    -191.75453857 Ry
     Harris-Foulkes estimate   =    -191.81196276 Ry
     estimated scf accuracy    <      15.07399800 Ry

     iteration #  9     ecut=    35.00 Ry     beta= 0.70
     Davidson diagonalization with overlap
     ethr =  1.00E-02,  avg # of iterations =  1.0

     total cpu time spent up to now is       15.2 secs

     total energy              =    -191.68317449 Ry
     Harris-Foulkes estimate   =    -191.77903513 Ry
     estimated scf accuracy    <      15.82245098 Ry

     iteration # 10     ecut=    35.00 Ry     beta= 0.70
     Davidson diagonalization with overlap
     ethr =  1.00E-02,  avg # of iterations =  1.0

     negative rho (up, down):  7.518E-01 0.000E+00

     total cpu time spent up to now is       15.4 secs

     total energy              =    -213.53561067 Ry
     Harris-Foulkes estimate   =    -191.69170798 Ry
     estimated scf accuracy    <      15.77326548 Ry

     iteration # 11     ecut=    35.00 Ry     beta= 0.70
     Davidson diagonalization with overlap
     ethr =  1.00E-02,  avg # of iterations = 10.0

     negative rho (up, down):  1.319E+00 0.000E+00

     total cpu time spent up to now is       15.6 secs

     total energy              =    -313.86336026 Ry
     Harris-Foulkes estimate   =    -282.04080984 Ry
     estimated scf accuracy    <     558.16994307 Ry

     iteration # 12     ecut=    35.00 Ry     beta= 0.70
     Davidson diagonalization with overlap
     ethr =  1.00E-02,  avg # of iterations =  3.0

     negative rho (up, down):  8.037E-01 0.000E+00

     total cpu time spent up to now is       15.8 secs

     total energy              =    -286.36929894 Ry
     Harris-Foulkes estimate   =    -314.35502248 Ry
     estimated scf accuracy    <     606.57582821 Ry

     iteration # 13     ecut=    35.00 Ry     beta= 0.70
     Davidson diagonalization with overlap
     ethr =  1.00E-02,  avg # of iterations =  3.0

     negative rho (up, down):  1.010E+00 0.000E+00

     total cpu time spent up to now is       16.0 secs

     total energy              =    -295.10848213 Ry
     Harris-Foulkes estimate   =    -286.73389208 Ry
     estimated scf accuracy    <     564.47617439 Ry

     iteration # 14     ecut=    35.00 Ry     beta= 0.70
     Davidson diagonalization with overlap
     ethr =  1.00E-02,  avg # of iterations =  1.0

     negative rho (up, down):  2.899E+00 0.000E+00

     total cpu time spent up to now is       16.2 secs

     total energy              =    -360.78568477 Ry
     Harris-Foulkes estimate   =    -295.14031604 Ry
     estimated scf accuracy    <     572.55342720 Ry

     iteration # 15     ecut=    35.00 Ry     beta= 0.70
     Davidson diagonalization with overlap
     ethr =  1.00E-02,  avg # of iterations =  7.0

     negative rho (up, down):  1.689E+00 0.000E+00

     total cpu time spent up to now is       16.4 secs

     total energy              =    -115.11081580 Ry
     Harris-Foulkes estimate   =    -363.39377904 Ry
     estimated scf accuracy    <     712.77839037 Ry

     iteration # 16     ecut=    35.00 Ry     beta= 0.70
     Davidson diagonalization with overlap
     ethr =  1.00E-02,  avg # of iterations = 12.0

     negative rho (up, down):  5.622E-01 0.000E+00

     total cpu time spent up to now is       16.6 secs

     total energy              =    -169.89421742 Ry
     Harris-Foulkes estimate   =    -228.28102574 Ry
     estimated scf accuracy    <     342.28905716 Ry

     iteration # 17     ecut=    35.00 Ry     beta= 0.70
     Davidson diagonalization with overlap
     ethr =  1.00E-02,  avg # of iterations =  8.0

     negative rho (up, down):  1.528E-01 0.000E+00

     total cpu time spent up to now is       16.8 secs

     total energy              =    -179.51597989 Ry
     Harris-Foulkes estimate   =    -188.72963215 Ry
     estimated scf accuracy    <      27.76283765 Ry

     iteration # 18     ecut=    35.00 Ry     beta= 0.70
     Davidson diagonalization with overlap
     ethr =  1.00E-02,  avg # of iterations =  5.0

     negative rho (up, down):  1.956E-01 0.000E+00

     total cpu time spent up to now is       17.0 secs

     total energy              =    -183.31821069 Ry
     Harris-Foulkes estimate   =    -188.79140037 Ry
     estimated scf accuracy    <      32.05974641 Ry

     iteration # 19     ecut=    35.00 Ry     beta= 0.70
     Davidson diagonalization with overlap
     ethr =  1.00E-02,  avg # of iterations =  5.0

     negative rho (up, down):  9.854E-02 0.000E+00

     total cpu time spent up to now is       17.2 secs

     total energy              =    -185.61384175 Ry
     Harris-Foulkes estimate   =    -185.87140581 Ry
     estimated scf accuracy    <       1.85375865 Ry

     iteration # 20     ecut=    35.00 Ry     beta= 0.70
     Davidson diagonalization with overlap
     ethr =  7.13E-03,  avg # of iterations =  1.0

     negative rho (up, down):  3.508E-03 0.000E+00

     total cpu time spent up to now is       17.4 secs

     total energy              =    -185.52760630 Ry
     Harris-Foulkes estimate   =    -185.69273085 Ry
     estimated scf accuracy    <       1.72912900 Ry

     iteration # 21     ecut=    35.00 Ry     beta= 0.70
     Davidson diagonalization with overlap
     ethr =  6.65E-03,  avg # of iterations =  1.0

     negative rho (up, down):  2.052E-02 0.000E+00

     total cpu time spent up to now is       17.6 secs

     total energy              =    -185.29073310 Ry
     Harris-Foulkes estimate   =    -185.57815915 Ry
     estimated scf accuracy    <       1.69294434 Ry

     iteration # 22     ecut=    35.00 Ry     beta= 0.70
     Davidson diagonalization with overlap
     ethr =  6.51E-03,  avg # of iterations =  1.0

     negative rho (up, down):  3.423E-03 0.000E+00

     total cpu time spent up to now is       17.8 secs

     total energy              =    -185.12871688 Ry
     Harris-Foulkes estimate   =    -185.33063029 Ry
     estimated scf accuracy    <       1.28061508 Ry

     iteration # 23     ecut=    35.00 Ry     beta= 0.70
     Davidson diagonalization with overlap
     ethr =  4.93E-03,  avg # of iterations =  3.0

     negative rho (up, down):  2.907E-03 0.000E+00

     total cpu time spent up to now is       18.0 secs

     total energy              =    -185.21842881 Ry
     Harris-Foulkes estimate   =    -185.33212220 Ry
     estimated scf accuracy    <       2.17632288 Ry

     iteration # 24     ecut=    35.00 Ry     beta= 0.70
     Davidson diagonalization with overlap
     ethr =  4.93E-03,  avg # of iterations =  1.0

     negative rho (up, down):  5.975E-03 0.000E+00

     total cpu time spent up to now is       18.1 secs

     total energy              =    -184.77480500 Ry
     Harris-Foulkes estimate   =    -185.23129262 Ry
     estimated scf accuracy    <       1.71698792 Ry

     iteration # 25     ecut=    35.00 Ry     beta= 0.70
     Davidson diagonalization with overlap
     ethr =  4.93E-03,  avg # of iterations =  3.0

     negative rho (up, down):  2.009E-02 0.000E+00

     total cpu time spent up to now is       18.3 secs

     total energy              =    -185.07945562 Ry
     Harris-Foulkes estimate   =    -185.12507036 Ry
     estimated scf accuracy    <       0.49649650 Ry

     iteration # 26     ecut=    35.00 Ry     beta= 0.70
     Davidson diagonalization with overlap
     ethr =  1.91E-03,  avg # of iterations =  2.0

     negative rho (up, down):  7.896E-04 0.000E+00

     total cpu time spent up to now is       18.5 secs

     total energy              =    -185.01627193 Ry
     Harris-Foulkes estimate   =    -185.11032329 Ry
     estimated scf accuracy    <       0.50172267 Ry

     iteration # 27     ecut=    35.00 Ry     beta= 0.70
     Davidson diagonalization with overlap
     ethr =  1.91E-03,  avg # of iterations =  2.0

     negative rho (up, down):  9.711E-06 0.000E+00

     total cpu time spent up to now is       18.7 secs

     total energy              =    -185.04120141 Ry
     Harris-Foulkes estimate   =    -185.04881428 Ry
     estimated scf accuracy    <       0.07165607 Ry

     iteration # 28     ecut=    35.00 Ry     beta= 0.70
     Davidson diagonalization with overlap
     ethr =  2.76E-04,  avg # of iterations =  4.0

     negative rho (up, down):  1.876E-04 0.000E+00

     total cpu time spent up to now is       18.9 secs

     total energy              =    -185.05324240 Ry
     Harris-Foulkes estimate   =    -185.05489259 Ry
     estimated scf accuracy    <       0.00823878 Ry

     iteration # 29     ecut=    35.00 Ry     beta= 0.70
     Davidson diagonalization with overlap
     ethr =  3.17E-05,  avg # of iterations =  3.0

     negative rho (up, down):  2.297E-04 0.000E+00

     total cpu time spent up to now is       19.0 secs

     End of self-consistent calculation

          k = 0.0000 0.0000 0.0000 (  2082 PWs)   bands (ev):

   -61.6792 -35.9528 -35.9454 -35.5581 -16.5907 -14.9290  -7.6762  -5.5372
    -5.5275  -4.2133  -4.2069  -3.1767  -0.7890

     highest occupied level (ev):    -0.7890

!    total energy              =    -185.05316288 Ry
     Harris-Foulkes estimate   =    -185.05445991 Ry
     estimated scf accuracy    <       0.00150016 Ry

     The total energy is the sum of the following terms:

     one-electron contribution =   -1030.66309532 Ry
     hartree contribution      =     514.67681785 Ry
     xc contribution           =     -32.78563183 Ry
     ewald contribution        =     363.71874642 Ry

     convergence has been achieved in  29 iterations

     negative rho (up, down):  2.297E-04 0.000E+00

     Forces acting on atoms (cartesian axes, Ry/au):

     atom    1 type  1   force =     0.00207107   -0.00119573    0.00000000
     atom    2 type  2   force =    -0.00103554    0.00059787    0.00951692
     atom    3 type  2   force =    -0.00103554    0.00059787   -0.00951692

     Total force =     0.013774     Total SCF correction =     0.253210
     SCF correction compared to forces is large: reduce conv_thr to get better values


     Computing stress (Cartesian axis) and pressure


     negative rho (up, down):  2.297E-04 0.000E+00
          total   stress  (Ry/bohr**3)                   (kbar)     P=       26.18
   0.00030046  -0.00000354   0.00000000           44.20       -0.52        0.00
  -0.00000354   0.00029637   0.00000000           -0.52       43.60        0.00
   0.00000000   0.00000000  -0.00006284            0.00        0.00       -9.24


     number of scf cycles    =   3
     number of bfgs steps    =   2

     enthalpy old            =    -185.0193336292 Ry
     enthalpy new            =    -185.0531628755 Ry

     CASE: enthalpy_new < enthalpy_old

     new trust radius        =       0.1545501118 bohr
     new conv_thr            =       0.0004758460 Ry

     new unit-cell volume =   1288.87457 a.u.^3 (   190.99150 Ang^3 )
     density =      1.39170 g/cm^3

CELL_PARAMETERS (angstrom)
   3.388553890  -0.001921686  -0.000000000
  -1.695941174   2.933612908  -0.000000000
  -0.000000000  -0.000000000  19.219374598

ATOMIC_POSITIONS (angstrom)
Mo            0.0003295854        1.9542705282        9.6096872990
S             1.6930111404        0.9770003767        8.2514009568
S             1.6930111404        0.9770003767       10.9679736411



     Writing output data file ./pwscf.save/
     NEW-OLD atomic charge density approx. for the potential

     negative rho (up, down):  2.886E-04 0.000E+00
     extrapolated charge   26.84265, renormalised to   26.00000

     total cpu time spent up to now is       21.9 secs

     Self-consistent Calculation

     iteration #  1     ecut=    35.00 Ry     beta= 0.70
     Davidson diagonalization with overlap
     ethr =  1.00E-06,  avg # of iterations = 14.0

     total cpu time spent up to now is       22.2 secs

     total energy              =      32.21065486 Ry
     Harris-Foulkes estimate   =    -163.91155020 Ry
     estimated scf accuracy    <     232.97534984 Ry

     iteration #  2     ecut=    35.00 Ry     beta= 0.70
     Davidson diagonalization with overlap
     c_bands:  2 eigenvalues not converged
     ethr =  1.00E-02,  avg # of iterations = 20.0

     total cpu time spent up to now is       22.5 secs

     total energy              =    -218.73888660 Ry
     Harris-Foulkes estimate   =    -329.30943052 Ry
     estimated scf accuracy    <     187.66515366 Ry

     iteration #  3     ecut=    35.00 Ry     beta= 0.70
     Davidson diagonalization with overlap
     ethr =  1.00E-02,  avg # of iterations = 11.0

     total cpu time spent up to now is       22.7 secs

     total energy              =    -210.63359841 Ry
     Harris-Foulkes estimate   =    -229.47646765 Ry
     estimated scf accuracy    <      53.96056453 Ry

     iteration #  4     ecut=    35.00 Ry     beta= 0.70
     Davidson diagonalization with overlap
     ethr =  1.00E-02,  avg # of iterations =  7.0

     total cpu time spent up to now is       22.9 secs

     total energy              =    -197.59732817 Ry
     Harris-Foulkes estimate   =    -212.12560866 Ry
     estimated scf accuracy    <      34.33405415 Ry

     iteration #  5     ecut=    35.00 Ry     beta= 0.70
     Davidson diagonalization with overlap
     ethr =  1.00E-02,  avg # of iterations =  5.0

     total cpu time spent up to now is       23.1 secs

     total energy              =    -196.54856517 Ry
     Harris-Foulkes estimate   =    -198.42341531 Ry
     estimated scf accuracy    <      18.16790655 Ry

     iteration #  6     ecut=    35.00 Ry     beta= 0.70
     Davidson diagonalization with overlap
     ethr =  1.00E-02,  avg # of iterations =  1.0

     total cpu time spent up to now is       23.3 secs

     total energy              =    -191.09074022 Ry
     Harris-Foulkes estimate   =    -196.62728167 Ry
     estimated scf accuracy    <      15.62328788 Ry

     iteration #  7     ecut=    35.00 Ry     beta= 0.70
     Davidson diagonalization with overlap
     ethr =  1.00E-02,  avg # of iterations =  6.0

     total cpu time spent up to now is       23.5 secs

     total energy              =    -193.57092436 Ry
     Harris-Foulkes estimate   =    -193.58784926 Ry
     estimated scf accuracy    <      22.20521628 Ry

     iteration #  8     ecut=    35.00 Ry     beta= 0.70
     Davidson diagonalization with overlap
     ethr =  1.00E-02,  avg # of iterations =  3.0

     total cpu time spent up to now is       23.7 secs

     total energy              =    -191.99359300 Ry
     Harris-Foulkes estimate   =    -194.02774959 Ry
     estimated scf accuracy    <      14.89399113 Ry

     iteration #  9     ecut=    35.00 Ry     beta= 0.70
     Davidson diagonalization with overlap
     ethr =  1.00E-02,  avg # of iterations =  1.0

     total cpu time spent up to now is       23.8 secs

     total energy              =    -187.49082253 Ry
     Harris-Foulkes estimate   =    -192.04189797 Ry
     estimated scf accuracy    <      12.82756640 Ry

     iteration # 10     ecut=    35.00 Ry     beta= 0.70
     Davidson diagonalization with overlap
     ethr =  1.00E-02,  avg # of iterations =  3.0

     negative rho (up, down):  3.329E-02 0.000E+00

     total cpu time spent up to now is       24.0 secs

     total energy              =    -186.88663691 Ry
     Harris-Foulkes estimate   =    -187.79904904 Ry
     estimated scf accuracy    <       6.75775349 Ry

     iteration # 11     ecut=    35.00 Ry     beta= 0.70
     Davidson diagonalization with overlap
     ethr =  1.00E-02,  avg # of iterations = 10.0

     negative rho (up, down):  2.917E-02 0.000E+00

     total cpu time spent up to now is       24.2 secs

     total energy              =    -189.19766593 Ry
     Harris-Foulkes estimate   =    -194.79573003 Ry
     estimated scf accuracy    <     139.73350666 Ry

     iteration # 12     ecut=    35.00 Ry     beta= 0.70
     Davidson diagonalization with overlap
     ethr =  1.00E-02,  avg # of iterations =  3.0

     negative rho (up, down):  3.320E-02 0.000E+00

     total cpu time spent up to now is       24.4 secs

     total energy              =    -179.79319061 Ry
     Harris-Foulkes estimate   =    -189.55184045 Ry
     estimated scf accuracy    <      98.76940000 Ry

     iteration # 13     ecut=    35.00 Ry     beta= 0.70
     Davidson diagonalization with overlap
     ethr =  1.00E-02,  avg # of iterations =  8.0

     negative rho (up, down):  6.504E-03 0.000E+00

     total cpu time spent up to now is       24.6 secs

     total energy              =    -187.62287728 Ry
     Harris-Foulkes estimate   =    -186.65068538 Ry
     estimated scf accuracy    <      19.63369075 Ry

     iteration # 14     ecut=    35.00 Ry     beta= 0.70
     Davidson diagonalization with overlap
     ethr =  1.00E-02,  avg # of iterations =  3.0

     negative rho (up, down):  4.534E-02 0.000E+00

     total cpu time spent up to now is       24.8 secs

     total energy              =    -183.15653858 Ry
     Harris-Foulkes estimate   =    -188.40895521 Ry
     estimated scf accuracy    <      37.65328007 Ry

     iteration # 15     ecut=    35.00 Ry     beta= 0.70
     Davidson diagonalization with overlap
     ethr =  1.00E-02,  avg # of iterations =  5.0

     negative rho (up, down):  5.535E-03 0.000E+00

     total cpu time spent up to now is       25.0 secs

     total energy              =    -185.26691621 Ry
     Harris-Foulkes estimate   =    -185.35627932 Ry
     estimated scf accuracy    <       1.20217718 Ry

     iteration # 16     ecut=    35.00 Ry     beta= 0.70
     Davidson diagonalization with overlap
     ethr =  4.62E-03,  avg # of iterations =  2.0

     total cpu time spent up to now is       25.2 secs

     total energy              =    -185.30675191 Ry
     Harris-Foulkes estimate   =    -185.36160079 Ry
     estimated scf accuracy    <       1.26535285 Ry

     iteration # 17     ecut=    35.00 Ry     beta= 0.70
     Davidson diagonalization with overlap
     ethr =  4.62E-03,  avg # of iterations =  3.0

     total cpu time spent up to now is       25.4 secs

     total energy              =    -186.12036093 Ry
     Harris-Foulkes estimate   =    -185.65823089 Ry
     estimated scf accuracy    <       0.98730945 Ry

     iteration # 18     ecut=    35.00 Ry     beta= 0.70
     Davidson diagonalization with overlap
     ethr =  3.80E-03,  avg # of iterations =  3.0

     total cpu time spent up to now is       25.6 secs

     total energy              =    -185.71146044 Ry
     Harris-Foulkes estimate   =    -186.32567862 Ry
     estimated scf accuracy    <       2.61724757 Ry

     iteration # 19     ecut=    35.00 Ry     beta= 0.70
     Davidson diagonalization with overlap
     ethr =  3.80E-03,  avg # of iterations =  1.0

     total cpu time spent up to now is       25.8 secs

     total energy              =    -185.40579747 Ry
     Harris-Foulkes estimate   =    -185.75521601 Ry
     estimated scf accuracy    <       1.66714339 Ry

     iteration # 20     ecut=    35.00 Ry     beta= 0.70
     Davidson diagonalization with overlap
     ethr =  3.80E-03,  avg # of iterations =  2.0

     total cpu time spent up to now is       25.9 secs

     total energy              =    -185.23297678 Ry
     Harris-Foulkes estimate   =    -185.45427603 Ry
     estimated scf accuracy    <       0.90851267 Ry

     iteration # 21     ecut=    35.00 Ry     beta= 0.70
     Davidson diagonalization with overlap
     ethr =  3.49E-03,  avg # of iterations =  2.0

     negative rho (up, down):  2.571E-03 0.000E+00

     total cpu time spent up to now is       26.1 secs

     total energy              =    -185.00939302 Ry
     Harris-Foulkes estimate   =    -185.28853999 Ry
     estimated scf accuracy    <       0.40086331 Ry

     iteration # 22     ecut=    35.00 Ry     beta= 0.70
     Davidson diagonalization with overlap
     ethr =  1.54E-03,  avg # of iterations =  3.0

     negative rho (up, down):  3.012E-04 0.000E+00

     total cpu time spent up to now is       26.3 secs

     total energy              =    -185.03823723 Ry
     Harris-Foulkes estimate   =    -185.09356831 Ry
     estimated scf accuracy    <       0.13185618 Ry

     iteration # 23     ecut=    35.00 Ry     beta= 0.70
     Davidson diagonalization with overlap
     ethr =  5.07E-04,  avg # of iterations =  4.0

     negative rho (up, down):  3.846E-03 0.000E+00

     total cpu time spent up to now is       26.5 secs

     total energy              =    -185.05870836 Ry
     Harris-Foulkes estimate   =    -185.07934004 Ry
     estimated scf accuracy    <       0.09272335 Ry

     iteration # 24     ecut=    35.00 Ry     beta= 0.70
     Davidson diagonalization with overlap
     ethr =  3.57E-04,  avg # of iterations =  2.0

     negative rho (up, down):  4.130E-04 0.000E+00

     total cpu time spent up to now is       26.7 secs

     total energy              =    -185.05918925 Ry
     Harris-Foulkes estimate   =    -185.06680163 Ry
     estimated scf accuracy    <       0.01893962 Ry

     iteration # 25     ecut=    35.00 Ry     beta= 0.70
     Davidson diagonalization with overlap
     ethr =  7.28E-05,  avg # of iterations =  4.0

     negative rho (up, down):  4.975E-04 0.000E+00

     total cpu time spent up to now is       26.9 secs

     total energy              =    -185.06408001 Ry
     Harris-Foulkes estimate   =    -185.06668301 Ry
     estimated scf accuracy    <       0.00972070 Ry

     iteration # 26     ecut=    35.00 Ry     beta= 0.70
     Davidson diagonalization with overlap
     ethr =  3.74E-05,  avg # of iterations =  3.0

     negative rho (up, down):  4.552E-04 0.000E+00

     total cpu time spent up to now is       27.0 secs

     total energy              =    -185.06535312 Ry
     Harris-Foulkes estimate   =    -185.06552009 Ry
     estimated scf accuracy    <       0.00068029 Ry

     iteration # 27     ecut=    35.00 Ry     beta= 0.70
     Davidson diagonalization with overlap
     ethr =  2.62E-06,  avg # of iterations =  4.0

     negative rho (up, down):  5.118E-04 0.000E+00

     total cpu time spent up to now is       27.2 secs

     total energy              =    -185.06540522 Ry
     Harris-Foulkes estimate   =    -185.06554794 Ry
     estimated scf accuracy    <       0.00054169 Ry

     iteration # 28     ecut=    35.00 Ry     beta= 0.70
     Davidson diagonalization with overlap
     ethr =  2.08E-06,  avg # of iterations =  2.0

     negative rho (up, down):  2.833E-04 0.000E+00

     total cpu time spent up to now is       27.4 secs

     End of self-consistent calculation

          k = 0.0000 0.0000 0.0000 (  2082 PWs)   bands (ev):

   -62.0156 -36.3397 -36.3362 -35.7979 -16.7786 -14.8967  -7.7983  -6.0591
    -6.0540  -4.5789  -4.5522  -2.9947  -0.7087

     highest occupied level (ev):    -0.7087

!    total energy              =    -185.06541637 Ry
     Harris-Foulkes estimate   =    -185.06546016 Ry
     estimated scf accuracy    <       0.00004965 Ry

     The total energy is the sum of the following terms:

     one-electron contribution =    -988.19494773 Ry
     hartree contribution      =     493.37674445 Ry
     xc contribution           =     -32.77687663 Ry
     ewald contribution        =     342.52966355 Ry

     convergence has been achieved in  28 iterations

     negative rho (up, down):  2.833E-04 0.000E+00

     Forces acting on atoms (cartesian axes, Ry/au):

     atom    1 type  1   force =    -0.00318803    0.00184061   -0.00000000
     atom    2 type  2   force =     0.00159401   -0.00092030   -0.03153799
     atom    3 type  2   force =     0.00159401   -0.00092030    0.03153799

     Total force =     0.044829     Total SCF correction =     0.030056
     SCF correction compared to forces is large: reduce conv_thr to get better values


     Computing stress (Cartesian axis) and pressure


     negative rho (up, down):  2.833E-04 0.000E+00
          total   stress  (Ry/bohr**3)                   (kbar)     P=       23.15
   0.00016750   0.00000158   0.00000000           24.64        0.23        0.00
   0.00000158   0.00016932   0.00000000            0.23       24.91        0.00
   0.00000000   0.00000000   0.00013525            0.00        0.00       19.90


     number of scf cycles    =   4
     number of bfgs steps    =   3

     enthalpy old            =    -185.0531628755 Ry
     enthalpy new            =    -185.0654163711 Ry

     CASE: enthalpy_new < enthalpy_old

     new trust radius        =       0.0916129605 bohr
     new conv_thr            =       0.0015768995 Ry

     new unit-cell volume =   1322.54618 a.u.^3 (   195.98112 Ang^3 )
     density =      1.35627 g/cm^3

CELL_PARAMETERS (angstrom)
   3.431788943  -0.001994971  -0.000000000
  -1.717622167   2.971018920  -0.000000000
  -0.000000000  -0.000000000  19.228005175

ATOMIC_POSITIONS (angstrom)
Mo           -0.0015287077        1.9802318987        9.6140025876
S             1.7155156106        0.9888958993        8.2517594332
S             1.7155156106        0.9888958993       10.9762457420



     Writing output data file ./pwscf.save/
     NEW-OLD atomic charge density approx. for the potential

     negative rho (up, down):  3.511E-04 0.000E+00
     extrapolated charge   26.66192, renormalised to   26.00000

     total cpu time spent up to now is       30.3 secs

     Self-consistent Calculation

     iteration #  1     ecut=    35.00 Ry     beta= 0.70
     Davidson diagonalization with overlap
     ethr =  1.00E-06,  avg # of iterations = 13.0

     total cpu time spent up to now is       30.6 secs

     total energy              =     -11.64889617 Ry
     Harris-Foulkes estimate   =    -166.73166083 Ry
     estimated scf accuracy    <     185.93137558 Ry

     iteration #  2     ecut=    35.00 Ry     beta= 0.70
     Davidson diagonalization with overlap
     ethr =  1.00E-02,  avg # of iterations = 26.0

     total cpu time spent up to now is       30.9 secs

     total energy              =    -210.28582458 Ry
     Harris-Foulkes estimate   =    -303.03559873 Ry
     estimated scf accuracy    <     159.64159177 Ry

     iteration #  3     ecut=    35.00 Ry     beta= 0.70
     Davidson diagonalization with overlap
     ethr =  1.00E-02,  avg # of iterations = 11.0

     total cpu time spent up to now is       31.1 secs

     total energy              =    -205.39287276 Ry
     Harris-Foulkes estimate   =    -220.94440431 Ry
     estimated scf accuracy    <      44.47232036 Ry

     iteration #  4     ecut=    35.00 Ry     beta= 0.70
     Davidson diagonalization with overlap
     ethr =  1.00E-02,  avg # of iterations =  8.0

     total cpu time spent up to now is       31.3 secs

     total energy              =    -196.92923842 Ry
     Harris-Foulkes estimate   =    -207.11809412 Ry
     estimated scf accuracy    <      29.21722808 Ry

     iteration #  5     ecut=    35.00 Ry     beta= 0.70
     Davidson diagonalization with overlap
     ethr =  1.00E-02,  avg # of iterations =  4.0

     total cpu time spent up to now is       31.5 secs

     total energy              =    -193.58257052 Ry
     Harris-Foulkes estimate   =    -197.26698628 Ry
     estimated scf accuracy    <      16.15112695 Ry

     iteration #  6     ecut=    35.00 Ry     beta= 0.70
     Davidson diagonalization with overlap
     ethr =  1.00E-02,  avg # of iterations =  2.0

     total cpu time spent up to now is       31.6 secs

     total energy              =    -189.86677429 Ry
     Harris-Foulkes estimate   =    -193.71982551 Ry
     estimated scf accuracy    <      11.76213355 Ry

     iteration #  7     ecut=    35.00 Ry     beta= 0.70
     Davidson diagonalization with overlap
     ethr =  1.00E-02,  avg # of iterations =  1.0

     negative rho (up, down):  7.883E-04 0.000E+00

     total cpu time spent up to now is       31.8 secs

     total energy              =    -184.21161376 Ry
     Harris-Foulkes estimate   =    -189.92937762 Ry
     estimated scf accuracy    <       7.47538458 Ry

     iteration #  8     ecut=    35.00 Ry     beta= 0.70
     Davidson diagonalization with overlap
     ethr =  1.00E-02,  avg # of iterations =  6.0

     total cpu time spent up to now is       32.0 secs

     total energy              =    -187.08183757 Ry
     Harris-Foulkes estimate   =    -186.02796599 Ry
     estimated scf accuracy    <       3.29129754 Ry

     iteration #  9     ecut=    35.00 Ry     beta= 0.70
     Davidson diagonalization with overlap
     ethr =  1.00E-02,  avg # of iterations =  2.0

     total cpu time spent up to now is       32.2 secs

     total energy              =    -187.58195840 Ry
     Harris-Foulkes estimate   =    -187.42726689 Ry
     estimated scf accuracy    <       3.70109270 Ry

     iteration # 10     ecut=    35.00 Ry     beta= 0.70
     Davidson diagonalization with overlap
     ethr =  1.00E-02,  avg # of iterations =  1.0

     negative rho (up, down):  2.861E-02 0.000E+00

     total cpu time spent up to now is       32.4 secs

     total energy              =    -185.53460561 Ry
     Harris-Foulkes estimate   =    -187.60784977 Ry
     estimated scf accuracy    <       3.74760577 Ry

     iteration # 11     ecut=    35.00 Ry     beta= 0.70
     Davidson diagonalization with overlap
     ethr =  1.00E-02,  avg # of iterations = 10.0

     negative rho (up, down):  9.316E-04 0.000E+00

     total cpu time spent up to now is       32.6 secs

     total energy              =    -173.79427739 Ry
     Harris-Foulkes estimate   =    -189.59102425 Ry
     estimated scf accuracy    <      96.12898913 Ry

     iteration # 12     ecut=    35.00 Ry     beta= 0.70
     Davidson diagonalization with overlap
     ethr =  1.00E-02,  avg # of iterations =  9.0

     total cpu time spent up to now is       32.8 secs

     total energy              =    -186.88075599 Ry
     Harris-Foulkes estimate   =    -185.72678588 Ry
     estimated scf accuracy    <       2.09653954 Ry

     iteration # 13     ecut=    35.00 Ry     beta= 0.70
     Davidson diagonalization with overlap
     ethr =  8.06E-03,  avg # of iterations =  2.0

     negative rho (up, down):  1.719E-03 0.000E+00

     total cpu time spent up to now is       33.0 secs

     total energy              =    -187.78821711 Ry
     Harris-Foulkes estimate   =    -187.11007783 Ry
     estimated scf accuracy    <       3.17455182 Ry

     iteration # 14     ecut=    35.00 Ry     beta= 0.70
     Davidson diagonalization with overlap
     ethr =  8.06E-03,  avg # of iterations =  1.0

     negative rho (up, down):  3.697E-02 0.000E+00

     total cpu time spent up to now is       33.2 secs

     total energy              =    -189.29839938 Ry
     Harris-Foulkes estimate   =    -187.81620113 Ry
     estimated scf accuracy    <       3.86333506 Ry

     iteration # 15     ecut=    35.00 Ry     beta= 0.70
     Davidson diagonalization with overlap
     ethr =  8.06E-03,  avg # of iterations =  1.0

     negative rho (up, down):  2.294E-01 0.000E+00

     total cpu time spent up to now is       33.4 secs

     total energy              =    -193.55774448 Ry
     Harris-Foulkes estimate   =    -189.33686871 Ry
     estimated scf accuracy    <       5.45719656 Ry

     iteration # 16     ecut=    35.00 Ry     beta= 0.70
     Davidson diagonalization with overlap
     ethr =  8.06E-03,  avg # of iterations =  4.0

     negative rho (up, down):  1.203E+00 0.000E+00

     total cpu time spent up to now is       33.5 secs

     total energy              =    -217.39717981 Ry
     Harris-Foulkes estimate   =    -193.94793999 Ry
     estimated scf accuracy    <      12.08024964 Ry

     iteration # 17     ecut=    35.00 Ry     beta= 0.70
     Davidson diagonalization with overlap
     ethr =  8.06E-03,  avg # of iterations = 10.0

     total cpu time spent up to now is       33.8 secs

     total energy              =    -185.76150841 Ry
     Harris-Foulkes estimate   =    -219.92458740 Ry
     estimated scf accuracy    <      51.88635940 Ry

     iteration # 18     ecut=    35.00 Ry     beta= 0.70
     Davidson diagonalization with overlap
     ethr =  8.06E-03,  avg # of iterations =  5.0

     total cpu time spent up to now is       34.0 secs

     total energy              =    -188.18310944 Ry
     Harris-Foulkes estimate   =    -187.65107562 Ry
     estimated scf accuracy    <       3.58001066 Ry

     iteration # 19     ecut=    35.00 Ry     beta= 0.70
     Davidson diagonalization with overlap
     ethr =  8.06E-03,  avg # of iterations =  1.0

     total cpu time spent up to now is       34.1 secs

     total energy              =    -186.83307103 Ry
     Harris-Foulkes estimate   =    -188.22281943 Ry
     estimated scf accuracy    <       4.07139825 Ry

     iteration # 20     ecut=    35.00 Ry     beta= 0.70
     Davidson diagonalization with overlap
     ethr =  8.06E-03,  avg # of iterations =  2.0

     negative rho (up, down):  3.699E-03 0.000E+00

     total cpu time spent up to now is       34.3 secs

     total energy              =    -184.71296151 Ry
     Harris-Foulkes estimate   =    -186.92318105 Ry
     estimated scf accuracy    <       2.63025994 Ry

     iteration # 21     ecut=    35.00 Ry     beta= 0.70
     Davidson diagonalization with overlap
     ethr =  8.06E-03,  avg # of iterations =  4.0

     total cpu time spent up to now is       34.5 secs

     total energy              =    -185.08375508 Ry
     Harris-Foulkes estimate   =    -185.19216303 Ry
     estimated scf accuracy    <       0.78521296 Ry

     iteration # 22     ecut=    35.00 Ry     beta= 0.70
     Davidson diagonalization with overlap
     ethr =  3.02E-03,  avg # of iterations =  3.0

     negative rho (up, down):  2.292E-03 0.000E+00

     total cpu time spent up to now is       34.7 secs

     total energy              =    -185.13665022 Ry
     Harris-Foulkes estimate   =    -185.15142424 Ry
     estimated scf accuracy    <       0.47018400 Ry

     iteration # 23     ecut=    35.00 Ry     beta= 0.70
     Davidson diagonalization with overlap
     ethr =  1.81E-03,  avg # of iterations =  2.0

     negative rho (up, down):  2.060E-03 0.000E+00

     total cpu time spent up to now is       34.9 secs

     total energy              =    -185.08263951 Ry
     Harris-Foulkes estimate   =    -185.15894096 Ry
     estimated scf accuracy    <       0.52387562 Ry

     iteration # 24     ecut=    35.00 Ry     beta= 0.70
     Davidson diagonalization with overlap
     ethr =  1.81E-03,  avg # of iterations =  2.0

     negative rho (up, down):  5.279E-04 0.000E+00

     total cpu time spent up to now is       35.0 secs

     total energy              =    -185.03185111 Ry
     Harris-Foulkes estimate   =    -185.10665606 Ry
     estimated scf accuracy    <       0.32244437 Ry

     iteration # 25     ecut=    35.00 Ry     beta= 0.70
     Davidson diagonalization with overlap
     ethr =  1.24E-03,  avg # of iterations =  3.0

     negative rho (up, down):  7.853E-04 0.000E+00

     total cpu time spent up to now is       35.2 secs

     total energy              =    -185.07252619 Ry
     Harris-Foulkes estimate   =    -185.08212421 Ry
     estimated scf accuracy    <       0.07309862 Ry

     iteration # 26     ecut=    35.00 Ry     beta= 0.70
     Davidson diagonalization with overlap
     ethr =  2.81E-04,  avg # of iterations =  2.0

     negative rho (up, down):  1.325E-03 0.000E+00

     total cpu time spent up to now is       35.4 secs

     total energy              =    -185.06222175 Ry
     Harris-Foulkes estimate   =    -185.07563981 Ry
     estimated scf accuracy    <       0.04376696 Ry

     iteration # 27     ecut=    35.00 Ry     beta= 0.70
     Davidson diagonalization with overlap
     ethr =  1.68E-04,  avg # of iterations =  4.0

     negative rho (up, down):  2.054E-03 0.000E+00

     total cpu time spent up to now is       35.6 secs

     total energy              =    -185.06695479 Ry
     Harris-Foulkes estimate   =    -185.07910287 Ry
     estimated scf accuracy    <       0.08783670 Ry

     iteration # 28     ecut=    35.00 Ry     beta= 0.70
     Davidson diagonalization with overlap
     ethr =  1.68E-04,  avg # of iterations =  2.0

     negative rho (up, down):  5.775E-04 0.000E+00

     total cpu time spent up to now is       35.8 secs

     total energy              =    -185.07051978 Ry
     Harris-Foulkes estimate   =    -185.07094593 Ry
     estimated scf accuracy    <       0.01689996 Ry

     iteration # 29     ecut=    35.00 Ry     beta= 0.70
     Davidson diagonalization with overlap
     ethr =  6.50E-05,  avg # of iterations =  1.0

     negative rho (up, down):  4.158E-04 0.000E+00

     total cpu time spent up to now is       36.0 secs

     total energy              =    -185.06924947 Ry
     Harris-Foulkes estimate   =    -185.07090932 Ry
     estimated scf accuracy    <       0.01566276 Ry

     iteration # 30     ecut=    35.00 Ry     beta= 0.70
     Davidson diagonalization with overlap
     ethr =  6.02E-05,  avg # of iterations =  3.0

     negative rho (up, down):  4.287E-04 0.000E+00

     total cpu time spent up to now is       36.1 secs

     total energy              =    -185.06963995 Ry
     Harris-Foulkes estimate   =    -185.06987968 Ry
     estimated scf accuracy    <       0.00457405 Ry

     iteration # 31     ecut=    35.00 Ry     beta= 0.70
     Davidson diagonalization with overlap
     ethr =  1.76E-05,  avg # of iterations =  3.0

     negative rho (up, down):  4.509E-04 0.000E+00

     total cpu time spent up to now is       36.3 secs

     total energy              =    -185.06985067 Ry
     Harris-Foulkes estimate   =    -185.06995580 Ry
     estimated scf accuracy    <       0.00180229 Ry

     iteration # 32     ecut=    35.00 Ry     beta= 0.70
     Davidson diagonalization with overlap
     ethr =  6.93E-06,  avg # of iterations =  3.0

     negative rho (up, down):  3.423E-04 0.000E+00

     total cpu time spent up to now is       36.5 secs

     End of self-consistent calculation

          k = 0.0000 0.0000 0.0000 (  2082 PWs)   bands (ev):

   -62.1271 -36.4521 -36.4461 -35.8670 -16.6815 -14.8461  -7.6955  -6.0608
    -6.0509  -4.5855  -4.5846  -2.9722  -0.7339

     highest occupied level (ev):    -0.7339

!    total energy              =    -185.06939504 Ry
     Harris-Foulkes estimate   =    -185.06997591 Ry
     estimated scf accuracy    <       0.00064429 Ry

     The total energy is the sum of the following terms:

     one-electron contribution =    -965.35326091 Ry
     hartree contribution      =     481.70853550 Ry
     xc contribution           =     -32.71166483 Ry
     ewald contribution        =     331.28699520 Ry

     convergence has been achieved in  32 iterations

     negative rho (up, down):  3.423E-04 0.000E+00

     Forces acting on atoms (cartesian axes, Ry/au):

     atom    1 type  1   force =     0.00040312   -0.00023274    0.00000000
     atom    2 type  2   force =    -0.00020156    0.00011637   -0.02887295
     atom    3 type  2   force =    -0.00020156    0.00011637    0.02887295

     Total force =     0.040836     Total SCF correction =     0.141999
     SCF correction compared to forces is large: reduce conv_thr to get better values


     Computing stress (Cartesian axis) and pressure


     negative rho (up, down):  3.423E-04 0.000E+00
          total   stress  (Ry/bohr**3)                   (kbar)     P=       10.79
   0.00007957   0.00000119   0.00000000           11.71        0.17        0.00
   0.00000119   0.00008094   0.00000000            0.17       11.91        0.00
   0.00000000   0.00000000   0.00005947            0.00        0.00        8.75


     number of scf cycles    =   5
     number of bfgs steps    =   4

     enthalpy old            =    -185.0654163711 Ry
     enthalpy new            =    -185.0693950367 Ry

     CASE: enthalpy_new < enthalpy_old

     new trust radius        =       0.0901491252 bohr
     new conv_thr            =       0.0014436476 Ry

     new unit-cell volume =   1356.54374 a.u.^3 (   201.01904 Ang^3 )
     density =      1.32228 g/cm^3

CELL_PARAMETERS (angstrom)
   3.474219716  -0.001929542  -0.000000000
  -1.738780891   3.007797761  -0.000000000
  -0.000000000  -0.000000000  19.242909701

ATOMIC_POSITIONS (angstrom)
Mo           -0.0010220101        2.0045022038        9.6214548505
S             1.7365155296        1.0013344374        8.2393871493
S             1.7365155296        1.0013344374       11.0035225516



     Writing output data file ./pwscf.save/
     NEW-OLD atomic charge density approx. for the potential

     negative rho (up, down):  4.306E-04 0.000E+00
     extrapolated charge   26.65158, renormalised to   26.00000

     total cpu time spent up to now is       39.4 secs

     Self-consistent Calculation

     iteration #  1     ecut=    35.00 Ry     beta= 0.70
     Davidson diagonalization with overlap
     c_bands:  1 eigenvalues not converged
     ethr =  1.00E-06,  avg # of iterations = 20.0

     total cpu time spent up to now is       39.7 secs

     total energy              =     -21.27372891 Ry
     Harris-Foulkes estimate   =    -167.15263420 Ry
     estimated scf accuracy    <     175.43809752 Ry

     iteration #  2     ecut=    35.00 Ry     beta= 0.70
     Davidson diagonalization with overlap
     ethr =  1.00E-02,  avg # of iterations = 20.0

     total cpu time spent up to now is       39.9 secs

     total energy              =    -208.37622429 Ry
     Harris-Foulkes estimate   =    -297.27206726 Ry
     estimated scf accuracy    <     153.70132489 Ry

     iteration #  3     ecut=    35.00 Ry     beta= 0.70
     Davidson diagonalization with overlap
     ethr =  1.00E-02,  avg # of iterations = 11.0

     total cpu time spent up to now is       40.2 secs

     total energy              =    -204.21094197 Ry
     Harris-Foulkes estimate   =    -219.12498795 Ry
     estimated scf accuracy    <      42.48916064 Ry

     iteration #  4     ecut=    35.00 Ry     beta= 0.70
     Davidson diagonalization with overlap
     ethr =  1.00E-02,  avg # of iterations =  7.0

     total cpu time spent up to now is       40.4 secs

     total energy              =    -196.38100835 Ry
     Harris-Foulkes estimate   =    -205.98639139 Ry
     estimated scf accuracy    <      27.62627619 Ry

     iteration #  5     ecut=    35.00 Ry     beta= 0.70
     Davidson diagonalization with overlap
     ethr =  1.00E-02,  avg # of iterations =  4.0

     total cpu time spent up to now is       40.5 secs

     total energy              =    -193.88713406 Ry
     Harris-Foulkes estimate   =    -196.68375577 Ry
     estimated scf accuracy    <      15.78426645 Ry

     iteration #  6     ecut=    35.00 Ry     beta= 0.70
     Davidson diagonalization with overlap
     ethr =  1.00E-02,  avg # of iterations =  6.0

     total cpu time spent up to now is       40.7 secs

     total energy              =    -192.14531405 Ry
     Harris-Foulkes estimate   =    -194.30679413 Ry
     estimated scf accuracy    <      11.59558489 Ry

     iteration #  7     ecut=    35.00 Ry     beta= 0.70
     Davidson diagonalization with overlap
     ethr =  1.00E-02,  avg # of iterations =  1.0

     negative rho (up, down):  6.426E-04 0.000E+00

     total cpu time spent up to now is       40.9 secs

     total energy              =    -185.51814133 Ry
     Harris-Foulkes estimate   =    -192.17158999 Ry
     estimated scf accuracy    <       9.20736915 Ry

     iteration #  8     ecut=    35.00 Ry     beta= 0.70
     Davidson diagonalization with overlap
     ethr =  1.00E-02,  avg # of iterations =  5.0

     negative rho (up, down):  3.160E-04 0.000E+00

     total cpu time spent up to now is       41.1 secs

     total energy              =    -186.59402602 Ry
     Harris-Foulkes estimate   =    -186.54743194 Ry
     estimated scf accuracy    <       7.30353527 Ry

     iteration #  9     ecut=    35.00 Ry     beta= 0.70
     Davidson diagonalization with overlap
     ethr =  1.00E-02,  avg # of iterations =  1.0

     negative rho (up, down):  2.461E-04 0.000E+00

     total cpu time spent up to now is       41.3 secs

     total energy              =    -186.65733070 Ry
     Harris-Foulkes estimate   =    -186.61539689 Ry
     estimated scf accuracy    <       7.31559648 Ry

     iteration # 10     ecut=    35.00 Ry     beta= 0.70
     Davidson diagonalization with overlap
     ethr =  1.00E-02,  avg # of iterations =  1.0

     negative rho (up, down):  3.109E-02 0.000E+00

     total cpu time spent up to now is       41.5 secs

     total energy              =    -186.35850916 Ry
     Harris-Foulkes estimate   =    -186.66568664 Ry
     estimated scf accuracy    <       7.38121007 Ry

     iteration # 11     ecut=    35.00 Ry     beta= 0.70
     Davidson diagonalization with overlap
     ethr =  1.00E-02,  avg # of iterations = 10.0

     negative rho (up, down):  1.207E-02 0.000E+00

     total cpu time spent up to now is       41.7 secs

     total energy              =    -179.98318012 Ry
     Harris-Foulkes estimate   =    -189.25472262 Ry
     estimated scf accuracy    <      91.46335099 Ry

     iteration # 12     ecut=    35.00 Ry     beta= 0.70
     Davidson diagonalization with overlap
     ethr =  1.00E-02,  avg # of iterations =  6.0

     total cpu time spent up to now is       41.9 secs

     total energy              =    -185.14089782 Ry
     Harris-Foulkes estimate   =    -185.48758170 Ry
     estimated scf accuracy    <       2.38278387 Ry

     iteration # 13     ecut=    35.00 Ry     beta= 0.70
     Davidson diagonalization with overlap
     ethr =  9.16E-03,  avg # of iterations =  1.0

     negative rho (up, down):  1.227E-03 0.000E+00

     total cpu time spent up to now is       42.1 secs

     total energy              =    -185.09631153 Ry
     Harris-Foulkes estimate   =    -185.23996578 Ry
     estimated scf accuracy    <       1.53268323 Ry

     iteration # 14     ecut=    35.00 Ry     beta= 0.70
     Davidson diagonalization with overlap
     ethr =  5.89E-03,  avg # of iterations =  3.0

     negative rho (up, down):  2.235E-04 0.000E+00

     total cpu time spent up to now is       42.2 secs

     total energy              =    -184.59826397 Ry
     Harris-Foulkes estimate   =    -185.22689233 Ry
     estimated scf accuracy    <       1.59601729 Ry

     iteration # 15     ecut=    35.00 Ry     beta= 0.70
     Davidson diagonalization with overlap
     ethr =  5.89E-03,  avg # of iterations =  4.0

     negative rho (up, down):  7.997E-04 0.000E+00

     total cpu time spent up to now is       42.4 secs

     total energy              =    -185.21671171 Ry
     Harris-Foulkes estimate   =    -185.39839080 Ry
     estimated scf accuracy    <       2.84223921 Ry

     iteration # 16     ecut=    35.00 Ry     beta= 0.70
     Davidson diagonalization with overlap
     ethr =  5.89E-03,  avg # of iterations =  1.0

     negative rho (up, down):  3.412E-03 0.000E+00

     total cpu time spent up to now is       42.6 secs

     total energy              =    -184.97128024 Ry
     Harris-Foulkes estimate   =    -185.23726387 Ry
     estimated scf accuracy    <       2.00202661 Ry

     iteration # 17     ecut=    35.00 Ry     beta= 0.70
     Davidson diagonalization with overlap
     ethr =  5.89E-03,  avg # of iterations =  2.0

     negative rho (up, down):  1.299E-03 0.000E+00

     total cpu time spent up to now is       42.8 secs

     total energy              =    -185.00744513 Ry
     Harris-Foulkes estimate   =    -185.07090894 Ry
     estimated scf accuracy    <       0.28171136 Ry

     iteration # 18     ecut=    35.00 Ry     beta= 0.70
     Davidson diagonalization with overlap
     ethr =  1.08E-03,  avg # of iterations =  4.0

     negative rho (up, down):  4.719E-03 0.000E+00

     total cpu time spent up to now is       43.0 secs

     total energy              =    -185.07204414 Ry
     Harris-Foulkes estimate   =    -185.08423511 Ry
     estimated scf accuracy    <       0.08391667 Ry

     iteration # 19     ecut=    35.00 Ry     beta= 0.70
     Davidson diagonalization with overlap
     ethr =  3.23E-04,  avg # of iterations =  1.0

     negative rho (up, down):  6.120E-03 0.000E+00

     total cpu time spent up to now is       43.2 secs

     total energy              =    -185.06405936 Ry
     Harris-Foulkes estimate   =    -185.07423660 Ry
     estimated scf accuracy    <       0.04654927 Ry

     iteration # 20     ecut=    35.00 Ry     beta= 0.70
     Davidson diagonalization with overlap
     ethr =  1.79E-04,  avg # of iterations =  3.0

     negative rho (up, down):  4.710E-04 0.000E+00

     total cpu time spent up to now is       43.3 secs

     total energy              =    -185.07127300 Ry
     Harris-Foulkes estimate   =    -185.07371689 Ry
     estimated scf accuracy    <       0.01030163 Ry

     iteration # 21     ecut=    35.00 Ry     beta= 0.70
     Davidson diagonalization with overlap
     ethr =  3.96E-05,  avg # of iterations =  3.0

     negative rho (up, down):  4.061E-04 0.000E+00

     total cpu time spent up to now is       43.5 secs

     End of self-consistent calculation

          k = 0.0000 0.0000 0.0000 (  2082 PWs)   bands (ev):

   -62.2969 -36.6135 -36.6067 -35.9801 -16.5062 -14.7909  -7.5488  -5.9691
    -5.9590  -4.5569  -4.5483  -3.0068  -0.8292

     highest occupied level (ev):    -0.8292

!    total energy              =    -185.07248499 Ry
     Harris-Foulkes estimate   =    -185.07257871 Ry
     estimated scf accuracy    <       0.00017857 Ry

     The total energy is the sum of the following terms:

     one-electron contribution =    -941.30957893 Ry
     hartree contribution      =     469.74126026 Ry
     xc contribution           =     -32.63722050 Ry
     ewald contribution        =     319.13305417 Ry

     convergence has been achieved in  21 iterations

     negative rho (up, down):  4.061E-04 0.000E+00

     Forces acting on atoms (cartesian axes, Ry/au):

     atom    1 type  1   force =    -0.00062452    0.00036056   -0.00000000
     atom    2 type  2   force =     0.00031226   -0.00018028   -0.00738481
     atom    3 type  2   force =     0.00031226   -0.00018028    0.00738481

     Total force =     0.010481     Total SCF correction =     0.023790
     SCF correction compared to forces is large: reduce conv_thr to get better values


     Computing stress (Cartesian axis) and pressure


     negative rho (up, down):  4.061E-04 0.000E+00
          total   stress  (Ry/bohr**3)                   (kbar)     P=        0.47
  -0.00000355   0.00000029  -0.00000000           -0.52        0.04       -0.00
   0.00000029  -0.00000322   0.00000000            0.04       -0.47        0.00
  -0.00000000   0.00000000   0.00001629           -0.00        0.00        2.40


     number of scf cycles    =   6
     number of bfgs steps    =   5

     enthalpy old            =    -185.0693950367 Ry
     enthalpy new            =    -185.0724849911 Ry

     CASE: enthalpy_new < enthalpy_old

     new trust radius        =       0.0103318839 bohr
     new conv_thr            =       0.0003692403 Ry

     new unit-cell volume =   1356.96868 a.u.^3 (   201.08201 Ang^3 )
     density =      1.32186 g/cm^3

CELL_PARAMETERS (angstrom)
   3.473193862  -0.001870970  -0.000000000
  -1.738217239   3.006938631  -0.000000000
  -0.000000000  -0.000000000  19.259938138

ATOMIC_POSITIONS (angstrom)
Mo           -0.0014085137        2.0041916465        9.6299690691
S             1.7362296682        1.0009657744        8.2412115083
S             1.7362296682        1.0009657744       11.0187266300



     Writing output data file ./pwscf.save/
     NEW-OLD atomic charge density approx. for the potential

     negative rho (up, down):  4.135E-04 0.000E+00
     extrapolated charge   26.00814, renormalised to   26.00000

     total cpu time spent up to now is       46.4 secs

     Self-consistent Calculation

     iteration #  1     ecut=    35.00 Ry     beta= 0.70
     Davidson diagonalization with overlap
     ethr =  1.00E-06,  avg # of iterations =  5.0

     negative rho (up, down):  4.110E-04 0.000E+00

     total cpu time spent up to now is       46.6 secs

     total energy              =    -185.07218495 Ry
     Harris-Foulkes estimate   =    -184.78876904 Ry
     estimated scf accuracy    <       0.00071819 Ry

     iteration #  2     ecut=    35.00 Ry     beta= 0.70
     Davidson diagonalization with overlap
     ethr =  2.76E-06,  avg # of iterations =  5.0

     negative rho (up, down):  4.116E-04 0.000E+00

     total cpu time spent up to now is       46.8 secs

     total energy              =    -185.07077153 Ry
     Harris-Foulkes estimate   =    -185.07474676 Ry
     estimated scf accuracy    <       0.02082775 Ry

     iteration #  3     ecut=    35.00 Ry     beta= 0.70
     Davidson diagonalization with overlap
     ethr =  2.76E-06,  avg # of iterations =  5.0

     negative rho (up, down):  4.170E-04 0.000E+00

     total cpu time spent up to now is       47.0 secs

     End of self-consistent calculation

          k = 0.0000 0.0000 0.0000 (  2082 PWs)   bands (ev):

   -62.3327 -36.6379 -36.6303 -36.0258 -16.5036 -14.8194  -7.5516  -5.9514
    -5.9408  -4.5616  -4.5612  -3.0546  -0.8816

     highest occupied level (ev):    -0.8816

!    total energy              =    -185.07264797 Ry
     Harris-Foulkes estimate   =    -185.07271003 Ry
     estimated scf accuracy    <       0.00007024 Ry

     The total energy is the sum of the following terms:

     one-electron contribution =    -941.75404688 Ry
     hartree contribution      =     470.09290318 Ry
     xc contribution           =     -32.63823926 Ry
     ewald contribution        =     319.22673499 Ry

     convergence has been achieved in   3 iterations

     negative rho (up, down):  4.170E-04 0.000E+00

     Forces acting on atoms (cartesian axes, Ry/au):

     atom    1 type  1   force =     0.00034875   -0.00020135    0.00000000
     atom    2 type  2   force =    -0.00017437    0.00010067   -0.00043125
[...]

     iteration # 11     ecut=    35.00 Ry     beta= 0.70
     Davidson diagonalization with overlap
     ethr =  9.76E-07,  avg # of iterations =  4.0

     negative rho (up, down):  4.225E-04 0.000E+00

     total cpu time spent up to now is       64.3 secs

     total energy              =    -185.07272539 Ry
     Harris-Foulkes estimate   =    -185.07272492 Ry
     estimated scf accuracy    <       0.00006354 Ry

     iteration # 12     ecut=    35.00 Ry     beta= 0.70
     Davidson diagonalization with overlap
     ethr =  2.44E-07,  avg # of iterations =  1.0

     negative rho (up, down):  4.221E-04 0.000E+00

     total cpu time spent up to now is       64.6 secs

     total energy              =    -185.07272687 Ry
     Harris-Foulkes estimate   =    -185.07272602 Ry
     estimated scf accuracy    <       0.00006377 Ry

     iteration # 13     ecut=    35.00 Ry     beta= 0.70
     Davidson diagonalization with overlap
     ethr =  2.44E-07,  avg # of iterations =  1.0

     negative rho (up, down):  4.220E-04 0.000E+00

     total cpu time spent up to now is       64.7 secs

     total energy              =    -185.07272785 Ry
     Harris-Foulkes estimate   =    -185.07272709 Ry
     estimated scf accuracy    <       0.00006917 Ry

     iteration # 14     ecut=    35.00 Ry     beta= 0.70
     Davidson diagonalization with overlap
     ethr =  2.44E-07,  avg # of iterations =  1.0

     negative rho (up, down):  4.233E-04 0.000E+00

     total cpu time spent up to now is       64.9 secs

     total energy              =    -185.07271816 Ry
     Harris-Foulkes estimate   =    -185.07272795 Ry
     estimated scf accuracy    <       0.00007325 Ry

     iteration # 15     ecut=    35.00 Ry     beta= 0.70
     Davidson diagonalization with overlap
     ethr =  2.44E-07,  avg # of iterations =  1.0

     negative rho (up, down):  4.236E-04 0.000E+00

     total cpu time spent up to now is       65.1 secs

     End of self-consistent calculation

          k = 0.0000 0.0000 0.0000 (  2082 PWs)   bands (ev):

   -62.2989 -36.6045 -36.5978 -35.9885 -16.4559 -14.7858  -7.5082  -5.9071
    -5.8974  -4.5267  -4.5253  -3.0334  -0.8556

     highest occupied level (ev):    -0.8556

!    total energy              =    -185.07268482 Ry
     Harris-Foulkes estimate   =    -185.07271912 Ry
     estimated scf accuracy    <       0.00003798 Ry

     The total energy is the sum of the following terms:

     one-electron contribution =    -939.33402038 Ry
     hartree contribution      =     468.76374415 Ry
     xc contribution           =     -32.62348179 Ry
     ewald contribution        =     318.12107320 Ry

     convergence has been achieved in  15 iterations

     negative rho (up, down):  4.236E-04 0.000E+00

     Forces acting on atoms (cartesian axes, Ry/au):

     atom    1 type  1   force =     0.00012314   -0.00007109    0.00000000
     atom    2 type  2   force =    -0.00006157    0.00003555    0.00017869
     atom    3 type  2   force =    -0.00006157    0.00003555   -0.00017869

     Total force =     0.000307     Total SCF correction =     0.018633
     SCF correction compared to forces is large: reduce conv_thr to get better values


     Computing stress (Cartesian axis) and pressure


     negative rho (up, down):  4.236E-04 0.000E+00
          total   stress  (Ry/bohr**3)                   (kbar)     P=       -1.00
  -0.00000209   0.00000045  -0.00000000           -0.31        0.07       -0.00
   0.00000045  -0.00000158  -0.00000000            0.07       -0.23       -0.00
  -0.00000000   0.00000000  -0.00001671           -0.00        0.00       -2.46


     number of scf cycles    =  10
     number of bfgs steps    =   8

     enthalpy old            =    -185.0726821972 Ry
     enthalpy new            =    -185.0726848172 Ry

     CASE: enthalpy_new < enthalpy_old

     new trust radius        =       0.0039706465 bohr
     new conv_thr            =       0.0000500000 Ry

     new unit-cell volume =   1361.37274 a.u.^3 (   201.73462 Ang^3 )
     density =      1.31758 g/cm^3

CELL_PARAMETERS (angstrom)
   3.479025018  -0.001773608  -0.000000000
  -1.741048499   3.012037242  -0.000000000
  -0.000000000  -0.000000000  19.257085084

ATOMIC_POSITIONS (angstrom)
Mo           -0.0010542387        2.0074510879        9.6285425421
S             1.7390243356        1.0028162545        8.2396070811
S             1.7390243356        1.0028162545       11.0174780032



     Writing output data file ./pwscf.save/
     NEW-OLD atomic charge density approx. for the potential

     negative rho (up, down):  4.225E-04 0.000E+00
     extrapolated charge   26.00100, renormalised to   26.00000

     total cpu time spent up to now is       68.1 secs

     Self-consistent Calculation

     iteration #  1     ecut=    35.00 Ry     beta= 0.70
     Davidson diagonalization with overlap
     ethr =  1.00E-06,  avg # of iterations =  5.0

     negative rho (up, down):  4.214E-04 0.000E+00

     total cpu time spent up to now is       68.3 secs

     total energy              =    -185.07173884 Ry
     Harris-Foulkes estimate   =    -185.03801694 Ry
     estimated scf accuracy    <       0.00139303 Ry

     iteration #  2     ecut=    35.00 Ry     beta= 0.70
     Davidson diagonalization with overlap
     ethr =  5.36E-06,  avg # of iterations =  4.0

     negative rho (up, down):  4.217E-04 0.000E+00

     total cpu time spent up to now is       68.6 secs

     total energy              =    -185.06978104 Ry
     Harris-Foulkes estimate   =    -185.07589485 Ry
     estimated scf accuracy    <       0.02747415 Ry

     iteration #  3     ecut=    35.00 Ry     beta= 0.70
     Davidson diagonalization with overlap
     ethr =  5.36E-06,  avg # of iterations =  5.0

     negative rho (up, down):  4.216E-04 0.000E+00

     total cpu time spent up to now is       68.8 secs

     total energy              =    -185.07259838 Ry
     Harris-Foulkes estimate   =    -185.07284433 Ry
     estimated scf accuracy    <       0.00114534 Ry

     iteration #  4     ecut=    35.00 Ry     beta= 0.70
     Davidson diagonalization with overlap
     ethr =  4.41E-06,  avg # of iterations =  2.0

     negative rho (up, down):  4.220E-04 0.000E+00

     total cpu time spent up to now is       69.1 secs

     End of self-consistent calculation

          k = 0.0000 0.0000 0.0000 (  2082 PWs)   bands (ev):

   -62.3228 -36.6286 -36.6231 -36.0099 -16.4695 -14.7894  -7.5195  -5.9302
    -5.9210  -4.5433  -4.5400  -3.0309  -0.8631

     highest occupied level (ev):    -0.8631

!    total energy              =    -185.07270902 Ry
     Harris-Foulkes estimate   =    -185.07271423 Ry
     estimated scf accuracy    <       0.00000613 Ry

     The total energy is the sum of the following terms:

     one-electron contribution =    -938.58331294 Ry
     hartree contribution      =     468.44461458 Ry
     xc contribution           =     -32.62672010 Ry
     ewald contribution        =     317.69270943 Ry

     convergence has been achieved in   4 iterations

     negative rho (up, down):  4.220E-04 0.000E+00

     Forces acting on atoms (cartesian axes, Ry/au):

     atom    1 type  1   force =    -0.00016089    0.00009289   -0.00000000
     atom    2 type  2   force =     0.00008045   -0.00004645    0.00012217
     atom    3 type  2   force =     0.00008045   -0.00004645   -0.00012217

     Total force =     0.000286     Total SCF correction =     0.007713
     SCF correction compared to forces is large: reduce conv_thr to get better values


     Computing stress (Cartesian axis) and pressure


     negative rho (up, down):  4.220E-04 0.000E+00
          total   stress  (Ry/bohr**3)                   (kbar)     P=       -0.33
  -0.00000330   0.00000034  -0.00000000           -0.49        0.05       -0.00
   0.00000034  -0.00000291  -0.00000000            0.05       -0.43       -0.00
  -0.00000000  -0.00000000  -0.00000043           -0.00       -0.00       -0.06


     bfgs converged in  11 scf cycles and   9 bfgs steps
     (criteria: energy <  1.0E-04 Ry, force <  1.0E-03Ry/Bohr, cell <  5.0E-01kbar)

     End of BFGS Geometry Optimization

     Final enthalpy =    -185.0727090227 Ry
Begin final coordinates
     new unit-cell volume =   1361.37274 a.u.^3 (   201.73462 Ang^3 )
     density =      1.31758 g/cm^3

CELL_PARAMETERS (angstrom)
   3.479025018  -0.001773608  -0.000000000
  -1.741048499   3.012037242  -0.000000000
  -0.000000000  -0.000000000  19.257085084

ATOMIC_POSITIONS (angstrom)
Mo           -0.0010542387        2.0074510879        9.6285425421
S             1.7390243356        1.0028162545        8.2396070811
S             1.7390243356        1.0028162545       11.0174780032
End final coordinates



     Writing output data file ./pwscf.save/

     Final scf calculation at the relaxed structure.
     The G-vectors are recalculated for the final unit cell
     Results may differ from those at the preceding step.

     G-vector sticks info
     --------------------
     sticks:   dense  smooth     PW     G-vecs:    dense   smooth      PW
     Sum         421     421    109                38157    38157    4761



     bravais-lattice index     =            0
     lattice parameter (alat)  =       6.0288  a.u.
     unit-cell volume          =    1361.3727 (a.u.)^3
     number of atoms/cell      =            3
     number of atomic types    =            2
     number of electrons       =        26.00
     number of Kohn-Sham states=           13
     kinetic-energy cutoff     =      35.0000  Ry
     charge density cutoff     =     140.0000  Ry
     convergence threshold     =      5.0E-05
     mixing beta               =       0.7000
     number of iterations used =            8  plain     mixing
     Exchange-correlation=  SLA  PW   PBX  PBC
                           (   1   4   3   4   0   0   0)

     celldm(1)=   6.028831  celldm(2)=   0.000000  celldm(3)=   0.000000
     celldm(4)=   0.000000  celldm(5)=   0.000000  celldm(6)=   0.000000

     crystal axes: (cart. coord. in units of alat)
               a(1) = (   1.090494  -0.000556  -0.000000 )  
               a(2) = (  -0.545728   0.944118  -0.000000 )  
               a(3) = (  -0.000000  -0.000000   6.036098 )  

     reciprocal axes: (cart. coord. in units 2 pi/alat)
               b(1) = (  0.917286  0.530219  0.000000 )  
               b(2) = (  0.000540  1.059502  0.000000 )  
               b(3) = (  0.000000  0.000000  0.165670 )  


     PseudoPot. # 1 for Mo read from file:
     ../../pseudos/Mo_ONCV_PBE-1.0.oncvpsp.upf
     MD5 check sum: 1b5d28e075c9ccadda658a603575cd1f
     Pseudo is Norm-conserving, Zval = 14.0
     Generated using ONCVPSP code by D. R. Hamann
     Using radial grid of 1526 points,  6 beta functions with: 
                l(1) =   0
                l(2) =   0
                l(3) =   1
                l(4) =   1
                l(5) =   2
                l(6) =   2

     PseudoPot. # 2 for S  read from file:
     ../../pseudos/s_pbe_v1.4.uspp.F.UPF
     MD5 check sum: 88d86576ff6df21479756cfb9bdac1df
     Pseudo is Ultrasoft + core correction, Zval =  6.0
     Generated by new atomic code, or converted to UPF format
     Using radial grid of  907 points,  6 beta functions with: 
                l(1) =   0
                l(2) =   0
                l(3) =   1
                l(4) =   1
                l(5) =   2
                l(6) =   2
     Q(r) pseudized with  8 coefficients,  rinner =    1.300   1.300   1.300
                                                       1.300   1.300

     atomic species   valence    mass     pseudopotential
        Mo            14.00    95.95000     Mo( 1.00)
        S              6.00    32.06000     S ( 1.00)

      4 Sym. Ops. (no inversion) found



   Cartesian axes

     site n.     atom                  positions (alat units)
         1           Mo  tau(   1) = (  -0.0003304   0.6292319   3.0180491  )
         2           S   tau(   2) = (   0.5450940   0.3143309   2.5826898  )
         3           S   tau(   3) = (   0.5450940   0.3143309   3.4534084  )

     number of k points=     1
                       cart. coord. in units 2pi/alat
        k(    1) = (   0.0000000   0.0000000   0.0000000), wk =   2.0000000

     Dense  grid:    19079 G-vectors     FFT dimensions: (  25,  25, 144)

     Estimated max dynamical RAM per process >      79.55 MB

     Initial potential from superposition of free atoms

     starting charge   25.99894, renormalised to   26.00000

     negative rho (up, down):  3.187E-04 0.000E+00
     Starting wfcs are   18 randomized atomic wfcs

     total cpu time spent up to now is       72.2 secs

     Self-consistent Calculation

     iteration #  1     ecut=    35.00 Ry     beta= 0.70
     Davidson diagonalization with overlap
     ethr =  1.00E-06,  avg # of iterations =  8.0

     negative rho (up, down):  2.128E-04 0.000E+00

     total cpu time spent up to now is       72.5 secs

     total energy              =    -184.86451758 Ry
     Harris-Foulkes estimate   =    -185.17066470 Ry
     estimated scf accuracy    <       0.47959601 Ry

     iteration #  2     ecut=    35.00 Ry     beta= 0.70
     Davidson diagonalization with overlap
     ethr =  1.84E-03,  avg # of iterations =  4.0

     negative rho (up, down):  1.690E-04 0.000E+00

     total cpu time spent up to now is       72.7 secs

     total energy              =    -184.60979461 Ry
     Harris-Foulkes estimate   =    -185.53808552 Ry
     estimated scf accuracy    <       3.05051431 Ry

     iteration #  3     ecut=    35.00 Ry     beta= 0.70
     Davidson diagonalization with overlap
     ethr =  1.84E-03,  avg # of iterations =  5.0

     negative rho (up, down):  1.570E-04 0.000E+00

     total cpu time spent up to now is       72.9 secs

     total energy              =    -185.06509430 Ry
     Harris-Foulkes estimate   =    -185.07804370 Ry
     estimated scf accuracy    <       0.05516604 Ry

     iteration #  4     ecut=    35.00 Ry     beta= 0.70
     Davidson diagonalization with overlap
     ethr =  2.12E-04,  avg # of iterations =  4.0

     negative rho (up, down):  1.636E-04 0.000E+00

     total cpu time spent up to now is       73.1 secs

     total energy              =    -185.07319562 Ry
     Harris-Foulkes estimate   =    -185.07432898 Ry
     estimated scf accuracy    <       0.00317810 Ry

     iteration #  5     ecut=    35.00 Ry     beta= 0.70
     Davidson diagonalization with overlap
     ethr =  1.22E-05,  avg # of iterations =  2.0

     negative rho (up, down):  1.722E-04 0.000E+00

     total cpu time spent up to now is       73.3 secs

     total energy              =    -185.07369449 Ry
     Harris-Foulkes estimate   =    -185.07368152 Ry
     estimated scf accuracy    <       0.00023415 Ry

     iteration #  6     ecut=    35.00 Ry     beta= 0.70
     Davidson diagonalization with overlap
     ethr =  9.01E-07,  avg # of iterations =  4.0

     negative rho (up, down):  1.715E-04 0.000E+00

     total cpu time spent up to now is       73.6 secs

     total energy              =    -185.07376468 Ry
     Harris-Foulkes estimate   =    -185.07389576 Ry
     estimated scf accuracy    <       0.00070818 Ry

     iteration #  7     ecut=    35.00 Ry     beta= 0.70
     Davidson diagonalization with overlap
     ethr =  9.01E-07,  avg # of iterations =  4.0

     negative rho (up, down):  1.692E-04 0.000E+00

     total cpu time spent up to now is       73.8 secs

     total energy              =    -185.07375559 Ry
     Harris-Foulkes estimate   =    -185.07385848 Ry
     estimated scf accuracy    <       0.00040896 Ry

     iteration #  8     ecut=    35.00 Ry     beta= 0.70
     Davidson diagonalization with overlap
     ethr =  9.01E-07,  avg # of iterations =  3.0

     negative rho (up, down):  1.700E-04 0.000E+00

     total cpu time spent up to now is       74.0 secs

     End of self-consistent calculation

          k = 0.0000 0.0000 0.0000 (  2381 PWs)   bands (ev):

   -62.2957 -36.6073 -36.6018 -35.9873 -16.4676 -14.7884  -7.5161  -5.9255
    -5.9164  -4.5391  -4.5357  -3.0302  -0.8551

     highest occupied level (ev):    -0.8551

!    total energy              =    -185.07380458 Ry
     Harris-Foulkes estimate   =    -185.07381008 Ry
     estimated scf accuracy    <       0.00000679 Ry

     The total energy is the sum of the following terms:

     one-electron contribution =    -938.54364416 Ry
     hartree contribution      =     468.40329319 Ry
     xc contribution           =     -32.62616326 Ry
     ewald contribution        =     317.69270965 Ry

     convergence has been achieved in   8 iterations

     negative rho (up, down):  1.700E-04 0.000E+00

     Forces acting on atoms (cartesian axes, Ry/au):

     atom    1 type  1   force =    -0.00014962    0.00008638   -0.00000000
     atom    2 type  2   force =     0.00007481   -0.00004319   -0.00068632
     atom    3 type  2   force =     0.00007481   -0.00004319    0.00068632

     Total force =     0.000993     Total SCF correction =     0.003283
     SCF correction compared to forces is large: reduce conv_thr to get better values


     Computing stress (Cartesian axis) and pressure


     negative rho (up, down):  1.700E-04 0.000E+00
          total   stress  (Ry/bohr**3)                   (kbar)     P=        0.78
   0.00000926   0.00000015   0.00000000            1.36        0.02        0.00
   0.00000015   0.00000944   0.00000000            0.02        1.39        0.00
   0.00000000   0.00000000  -0.00000283            0.00        0.00       -0.42


     Writing output data file ./pwscf.save/

     init_run     :      2.47s CPU      2.56s WALL (       2 calls)
     electrons    :     40.95s CPU     40.49s WALL (      12 calls)
     update_pot   :     11.14s CPU     11.34s WALL (      10 calls)
     forces       :      6.31s CPU      6.53s WALL (      12 calls)
     stress       :     14.50s CPU     14.19s WALL (      12 calls)

     Called by init_run:
     wfcinit      :      0.03s CPU      0.04s WALL (       2 calls)
     potinit      :      0.73s CPU      0.74s WALL (       2 calls)
     hinit0       :      1.62s CPU      1.67s WALL (       2 calls)

     Called by electrons:
     c_bands      :      8.60s CPU      8.29s WALL (     207 calls)
     sum_band     :     16.33s CPU     11.96s WALL (     207 calls)
     v_of_rho     :      6.26s CPU      7.24s WALL (     219 calls)
     newd         :      9.66s CPU     12.25s WALL (     219 calls)
     mix_rho      :      0.80s CPU      1.58s WALL (     207 calls)

     Called by c_bands:
     init_us_2    :      0.28s CPU      0.29s WALL (     416 calls)
     regterg      :      7.75s CPU      7.42s WALL (     208 calls)

     Called by sum_band:
     sum_band:bec :      0.00s CPU      0.00s WALL (     207 calls)
     addusdens    :     14.70s CPU     10.30s WALL (     207 calls)

     Called by *egterg:
     h_psi        :      6.47s CPU      6.39s WALL (    1091 calls)
     s_psi        :      0.24s CPU      0.11s WALL (    1091 calls)
     g_psi        :      0.05s CPU      0.05s WALL (     881 calls)
     rdiaghg      :      0.22s CPU      0.22s WALL (    1079 calls)

     Called by h_psi:
     h_psi:calbec :      0.28s CPU      0.29s WALL (    1091 calls)
     vloc_psi     :      5.80s CPU      5.91s WALL (    1091 calls)
     add_vuspsi   :      0.35s CPU      0.17s WALL (    1091 calls)

     General routines
     calbec       :      0.36s CPU      0.37s WALL (    1358 calls)
     fft          :      2.39s CPU      2.46s WALL (    2221 calls)
     ffts         :      0.23s CPU      0.23s WALL (     207 calls)
     fftw         :      5.77s CPU      5.86s WALL (   11235 calls)


     PWSCF        :   1m16.03s CPU   1m15.92s WALL


   This run was terminated on:  14:23:16  25Sep2020            

=------------------------------------------------------------------------------=
   JOB DONE.
=------------------------------------------------------------------------------=
